
Running Job 1 of 2 ts15.in
qchem ts15.in_30509.0 /tmp/qchem30509/ 4
/opt/qchem/bin/mpi/mpirun_qchem -machinefile /tmp/296594.1.normal1/hostfile -np 4 /opt/qchem/exe/qcprog.exe ts15.in_30509.0 /tmp/qchem30509/

Process 0 of 4 is on node20.cluster - thread support 0
Process 2 of 4 is on node20.cluster - thread support 0
Process 1 of 4 is on node20.cluster - thread support 0
Process 3 of 4 is on node20.cluster - thread support 0
initial socket setup ...start
initial socket setup ...done 
now start server 0 ... 
                  Welcome to Q-Chem
     A Quantum Leap Into The Future Of Chemistry

 Y. Shao, L. Fusti-Molnar, Y. Jung, J. Kussmann, C. Ochsenfeld, S. T. Brown, 
 A. T. B. Gilbert, L. V. Slipchenko, S. V. Levchenko, D. P. O'Neill, 
 R. A. DiStasio Jr., R. C. Lochan, T. Wang, G. J. O. Beran, N. A. Besley, 
 J. M. Herbert, C. Y. Lin, T. Van Voorhis, S. H. Chien, A. Sodt, R. P. Steele, 
 V. A. Rassolov, P. E. Maslen, P. P. Korambath, R. D. Adamson, B. Austin, 
 J. Baker, E. F. C. Byrd, H. Dachsel, R. J. Doerksen, A. Dreuw, B. D. Dunietz, 
 A. D. Dutoi, T. R. Furlani, S. R. Gwaltney, A. Heyden, S. Hirata, C.-P. Hsu, 
 G. Kedziora, R. Z. Khaliullin, P. Klunzinger, A. M. Lee, M. S. Lee, W. Liang, 
 I. Lotan, N. Nair, B. Peters, E. I. Proynov, P. A. Pieniazek, Y. M. Rhee, 
 J. Ritchie, E. Rosta, C. D. Sherrill, A. C. Simmonett, J. E. Subotnik, 
 H. L. Woodcock III, W. Zhang, A. T. Bell, A. K. Chakraborty, D. M. Chipman, 
 F. J. Keil, A. Warshel, W. J. Hehre, H. F. Schaefer III, J. Kong, 
 A. I. Krylov, P. M. W. Gill, M. Head-Gordon

 Additional authors for Version 3.1: 
 Z. Gan, Y. Zhao, N. E. SchultzD. Truhlar, E. Epifanovsky, M. Oana

 Additional authors for Version 3.2: 
 R. Baer, B. R. Brooks, D. Casanova, J.-D. Chai, C.-L. Cheng, C. Cramer, 
 D. Crittenden, A. Ghysels, G. Hawkins, E. G. Hohenstein, C. Kelley, 
 W. Kurlancheek, D. Liotard, E. Livshits, P. Manohar, A. Marenich, 
 D. Neuhauser, R. Olson, M. A. Rohrdanz, K. S. Thanthiriwatte, A. J. W. Thom, 
 V. Vanovschi, C. F. Williams, Q. Wu, Z.-Q. You

 Additional authors for Version 4.0: 
 A. Aspuru-Guzik, Y. Bernard, C. Chang, J. Deng, A. Dreuw, M. Diedenhofen, 
 R. G. Edgar, D. Ghosh, W. A. Goddard III, M. Goldey, L. D. Jacobson, 
 M. Gordon, B. Kaduk, I. Kaliman, K. Khistyaev, R. King, A. Klamt, 
 D. Kosenkov, T. Kus, D. Lambrecht, A. Landau, A. W. Lange, K. Lawler, F. Liu, 
 J. Liu, R. Olivares-Amaya, S. P. Mao, J. Parkhill, N. Russ, M. Schmidt, 
 N. Shenvi, D. Small, Y. C. Su, E. Sundstrom, L. Vogt, O. Vydrov, M. Watson, 
 M. Wormit, X. Xu, S. Yeganeh, I. Y. Zhang, D. Zuev

 Additional authors for Version 4.1: 
 X. Feng, M. W. D. Hanson-Heine, P. Horn, H. Ji, A. Laurent, R. Peverati, 
 N. Mardirossian, N. Sergueev, S. Sharada, P. Zimmerman


 Q-Chem, Version 4.1, Q-Chem, Inc., Pittsburgh, PA (2013).

 Intel X86 Linux Version 4.1.0.1 

 Q-chem begins on Sun Apr 20 10:44:50 2014  

Host: 
0

     Scratch files written to /tmp/qchem30509.0//
 Oct1213 14483_epif 4150   
 Parallel job on  4  processors
Processing $rem in /opt/qchem/config/preferences.
 MEM_TOTAL  2000 
Warning: disabling incdft.
 Q-Chem warning in module /home/scratch/svnadmin/14483_epif/qchem/forms1/BasisType.C, line 1125:

 Setting pure/cartesian flag to 2111 for general basis


Finally everything over in PARseQInput

--------------------------------------------------------------
User input:
--------------------------------------------------------------
$rem
XC_GRID 000075000434
JOBTYPE ts
EXCHANGE M08SO
BASIS gen
GUI=2
UNRESTRICTED TRUE
CORRELATION NONE
$end

$comment
c5h11o-2
$end

$molecule
0 2
O         1.622529    0.644877   -0.557365
H         0.572153    1.280324   -0.315703
C        -0.565227    1.442870    0.260979
H        -0.298358    2.009772    1.157821
H        -1.185245    2.013937   -0.436757
C         1.341809   -0.685249   -0.227701
H         1.001302   -1.253254   -1.110881
H         2.283479   -1.139373    0.124649
C        -0.967490    0.001754    0.494139
H        -1.675182   -0.046961    1.339786
C        -1.637357   -0.586726   -0.752758
H        -2.602085   -0.099731   -0.941808
H        -1.811483   -1.665114   -0.643487
H        -1.007963   -0.429164   -1.639710
C         0.295725   -0.783198    0.896283
H         0.060243   -1.838418    1.092584
H         0.719527   -0.350808    1.814423
$end

$basis
H  0
S  3 1.00
3.386500000000E+01 2.549380000000E-02
5.094790000000E+00 1.903730000000E-01
1.158790000000E+00 8.521610000000E-01
S  1 1.00
3.258400000000E-01 1.000000000000E+00
S  1 1.00
1.027410000000E-01 1.000000000000E+00
S  1 1.00
3.600000000000E-02 1.000000000000E+00
P  1 1.00
1.500000000000E+00 1.000000000000E+00
P  1 1.00
3.750000000000E-01 1.000000000000E+00
****
C 0
S  6 1.00
4.563240000000E+03 1.966650000000E-03
6.820240000000E+02 1.523060000000E-02
1.549730000000E+02 7.612690000000E-02
4.445530000000E+01 2.608010000000E-01
1.302900000000E+01 6.164620000000E-01
1.827730000000E+00 2.210060000000E-01
S  3 1.00
2.096420000000E+01 1.146600000000E-01
4.803310000000E+00 9.199990000000E-01
1.459330000000E+00 -3.030680000000E-03
S  1 1.00
4.834560000000E-01 1.000000000000E+00
S  1 1.00
1.455850000000E-01 1.000000000000E+00
S  1 1.00
4.380000000000E-02 1.000000000000E+00
P  3 1.00
2.096420000000E+01 4.024870000000E-02
4.803310000000E+00 2.375940000000E-01
1.459330000000E+00 8.158540000000E-01
P  1 1.00
4.834560000000E-01 1.000000000000E+00
P  1 1.00
1.455850000000E-01 1.000000000000E+00
P  1 1.00
4.380000000000E-02 1.000000000000E+00
D  1 1.00
1.252000000000E+00 1.000000000000E+00
D  1 1.00
3.130000000000E-01 1.000000000000E+00
F  1 1.00
8.000000000000E-01 1.000000000000E+00
****
O  0
S  6 1.00
8.588500000000E+03 1.895150000000E-03
1.297230000000E+03 1.438590000000E-02
2.992960000000E+02 7.073200000000E-02
8.737710000000E+01 2.400010000000E-01
2.567890000000E+01 5.947970000000E-01
3.740040000000E+00 2.808020000000E-01
S  3 1.00
4.211750000000E+01 1.138890000000E-01
9.628370000000E+00 9.208110000000E-01
2.853320000000E+00 -3.274470000000E-03
S  1 1.00
9.056610000000E-01 1.000000000000E+00
S  1 1.00
2.556110000000E-01 1.000000000000E+00
S  1 1.00
8.450000000000E-02 1.000000000000E+00
P  3 1.00
4.211750000000E+01 3.651140000000E-02
9.628370000000E+00 2.371530000000E-01
2.853320000000E+00 8.197020000000E-01
P  1 1.00
9.056610000000E-01 1.000000000000E+00
P  1 1.00
2.556110000000E-01 1.000000000000E+00
P  1 1.00
8.450000000000E-02 1.000000000000E+00
D  1 1.00
2.584000000000E+00 1.000000000000E+00
D  1 1.00
6.460000000000E-01 1.000000000000E+00
F  1 1.00
1.400000000000E+00 1.000000000000E+00
****
$end

--------------------------------------------------------------
 ----------------------------------------------------
       Standard Nuclear Orientation (Angstroms)
    I     Atom         X            Y            Z
 ----------------------------------------------------
    1      O       1.621915     0.655366    -0.557051
    2      H       0.563730     1.282740    -0.328730
    3      C      -0.578321     1.440500     0.239994
    4      H      -0.322117     2.021187     1.131108
    5      H      -1.200522     1.996403    -0.467971
    6      C       1.353274    -0.673450    -0.212380
    7      H       1.023375    -1.255839    -1.090201
    8      H       2.297724    -1.113327     0.150446
    9      C      -0.966833    -0.001751     0.488916
   10      H      -1.678460    -0.047415     1.331426
   11      C      -1.623926    -0.612544    -0.754041
   12      H      -2.592640    -0.138025    -0.954109
   13      H      -1.787424    -1.691261    -0.632312
   14      H      -0.991502    -0.459375    -1.639607
   15      C       0.302311    -0.768440     0.907299
   16      H       0.076759    -1.823559     1.115445
   17      H       0.716722    -0.320346     1.822190
 ----------------------------------------------------
 Molecular Point Group                 C1    NOp =  1
 Largest Abelian Subgroup              C1    NOp =  1
 Nuclear Repulsion Energy =   258.8567219733 hartrees
 There are       25 alpha and       24 beta electrons
 Requested basis set is non-standard
 There are 138 shells and 314 basis functions

Total QAlloc Memory Limit   2000 MB
Mega-Array Size        61 MB
MEM_STATIC part        62 MB
 A cutoff of  1.0D-11 yielded   9209 shell pairs
 There are     47977 function pairs (     57816 Cartesian)
 Smallest overlap matrix eigenvalue = 1.34E-05

  Scale SEOQF with 1.000000e-01/1.000000e-01/1.000000e-01

 Standard Electronic Orientation quadrupole field applied
 Nucleus-field energy     =     0.0000000031 hartrees
 Guess MOs from core Hamiltonian diagonalization
 An unrestricted hybrid HF-DFT SCF calculation will be
 performed using Pulay DIIS extrapolation
 Exchange:     0.5679 Hartree-Fock + 1.0000 M08SO
 SCF converges when DIIS error is below 1.0E-08
 ---------------------------------------
  Cycle       Energy         DIIS Error
 ---------------------------------------
    1    -192.7715378644      9.13E-02
    2    -173.3063917036      4.93E-02
    3    -198.2288982955      5.82E-02
    4    -249.7063753313      3.38E-02
    5    -262.2042102667      2.28E-02
    6    -267.1988676079      1.66E-02
    7    -271.9313189362      4.07E-03
    8    -272.1372136969      1.76E-03
    9    -272.1662503425      8.39E-04
   10    -272.1755483805      2.62E-04
   11    -272.1767714469      1.14E-04
   12    -272.1771713823      6.28E-05
   13    -272.1773103126      2.09E-05
   14    -272.1773261876      5.09E-06
   15    -272.1773274765      2.45E-06
   16    -272.1773278079      9.03E-07
   17    -272.1773279248      4.36E-07
   18    -272.1773279588      2.45E-07
   19    -272.1773279741      1.52E-07
   20    -272.1773279826      8.60E-08
   21    -272.1773279853      2.29E-08
   22    -272.1773279853      7.88E-09 Convergence criterion met
 ---------------------------------------
 <S^2> = 0.7589
 SCF time:  CPU 1696.64 s  wall 1708.50 s
 SCF   energy in the final basis set = -272.1773279853
 Total energy in the final basis set = -272.1773279853
 Analysis of SCF Wavefunction
 
 --------------------------------------------------------------
                    Orbital Energies (a.u.)
 --------------------------------------------------------------
 
 Alpha MOs
 -- Occupied --
-19.575 -10.540 -10.515 -10.512 -10.504 -10.492  -1.124  -0.924
 -0.827  -0.787  -0.709  -0.657  -0.593  -0.552  -0.528  -0.520
 -0.494  -0.492  -0.450  -0.432  -0.424  -0.412  -0.406  -0.352
 -0.303
 -- Virtual --
 -0.028  -0.011  -0.010  -0.004   0.013   0.015   0.017   0.024
  0.031   0.051   0.055   0.063   0.074   0.075   0.083   0.090
  0.104   0.115   0.119   0.123   0.127   0.128   0.133   0.139
  0.139   0.146   0.149   0.153   0.161   0.170   0.202   0.206
  0.211   0.219   0.224   0.242   0.247   0.259   0.270   0.278
  0.285   0.296   0.310   0.312   0.318   0.336   0.344   0.352
  0.369   0.382   0.404   0.431   0.447   0.458   0.464   0.478
  0.500   0.512   0.529   0.547   0.559   0.567   0.571   0.575
  0.583   0.586   0.598   0.599   0.608   0.616   0.635   0.640
  0.651   0.652   0.663   0.673   0.687   0.696   0.711   0.740
  0.781   0.793   0.815   0.837   0.847   0.873   0.897   0.949
  0.962   0.970   0.987   1.001   1.014   1.028   1.048   1.053
  1.069   1.087   1.107   1.136   1.148   1.167   1.181   1.192
  1.207   1.233   1.237   1.241   1.262   1.273   1.290   1.304
  1.315   1.318   1.330   1.340   1.344   1.362   1.383   1.388
  1.398   1.404   1.416   1.434   1.440   1.455   1.465   1.488
  1.490   1.498   1.531   1.545   1.557   1.577   1.592   1.599
  1.649   1.655   1.678   1.694   1.746   1.752   1.798   1.860
  2.010   2.132   2.169   2.332   2.391   2.414   2.465   2.498
  2.515   2.537   2.579   2.624   2.659   2.666   2.701   2.745
  2.747   2.775   2.816   2.819   2.845   2.867   2.870   2.898
  2.932   2.941   2.964   2.969   2.994   3.036   3.042   3.074
  3.115   3.139   3.154   3.174   3.186   3.221   3.250   3.261
  3.283   3.294   3.341   3.344   3.353   3.378   3.397   3.416
  3.430   3.464   3.472   3.501   3.517   3.531   3.574   3.586
  3.603   3.615   3.641   3.653   3.691   3.699   3.710   3.723
  3.747   3.766   3.771   3.802   3.831   3.865   3.882   3.913
  3.930   3.940   3.945   3.957   3.963   3.985   4.007   4.048
  4.053   4.083   4.099   4.124   4.132   4.165   4.185   4.204
  4.216   4.222   4.232   4.261   4.310   4.333   4.339   4.365
  4.384   4.414   4.447   4.465   4.478   4.493   4.514   4.548
  4.564   4.581   4.612   4.652   4.661   4.682   4.748   4.797
  4.923   5.064   5.135   5.183   5.193   5.283   5.311   5.344
  5.373   5.400   5.441   5.459   5.526   5.540   5.581   5.626
  5.649   5.664   5.843   5.868   6.113   6.555   6.977   7.232
  7.259   7.429   7.665  24.062  24.137  24.153  24.253  24.264
 49.836
 
 Beta MOs
 -- Occupied --
-19.559 -10.540 -10.515 -10.503 -10.502 -10.492  -1.092  -0.918
 -0.819  -0.781  -0.699  -0.643  -0.577  -0.549  -0.523  -0.494
 -0.490  -0.477  -0.444  -0.416  -0.408  -0.402  -0.393  -0.339
 -- Virtual --
 -0.083  -0.029  -0.013  -0.011  -0.006   0.012   0.015   0.015
  0.024   0.032   0.051   0.053   0.062   0.072   0.074   0.082
  0.090   0.104   0.114   0.119   0.122   0.126   0.128   0.133
  0.137   0.139   0.145   0.148   0.153   0.161   0.170   0.205
  0.207   0.212   0.220   0.226   0.243   0.247   0.261   0.269
  0.279   0.287   0.299   0.310   0.314   0.320   0.337   0.344
  0.353   0.381   0.384   0.409   0.435   0.447   0.459   0.465
  0.479   0.503   0.514   0.532   0.549   0.562   0.567   0.573
  0.576   0.585   0.588   0.599   0.606   0.612   0.617   0.636
  0.642   0.653   0.655   0.667   0.675   0.690   0.698   0.712
  0.741   0.781   0.795   0.816   0.837   0.850   0.875   0.898
  0.952   0.965   0.972   0.987   1.003   1.016   1.031   1.048
  1.054   1.071   1.088   1.111   1.139   1.152   1.173   1.183
  1.194   1.211   1.233   1.238   1.243   1.267   1.275   1.300
  1.306   1.316   1.321   1.335   1.342   1.346   1.366   1.386
  1.391   1.402   1.408   1.417   1.438   1.441   1.456   1.468
  1.492   1.495   1.500   1.535   1.546   1.563   1.585   1.595
  1.601   1.651   1.659   1.685   1.698   1.752   1.756   1.806
  1.868   2.024   2.132   2.172   2.334   2.392   2.423   2.465
  2.499   2.524   2.536   2.579   2.625   2.660   2.665   2.701
  2.730   2.752   2.787   2.820   2.825   2.847   2.861   2.871
  2.902   2.931   2.946   2.972   2.973   3.001   3.033   3.046
  3.071   3.111   3.141   3.158   3.177   3.192   3.220   3.254
  3.267   3.283   3.301   3.339   3.351   3.362   3.384   3.399
  3.416   3.440   3.466   3.485   3.506   3.527   3.538   3.575
  3.606   3.611   3.617   3.645   3.650   3.688   3.713   3.725
  3.733   3.753   3.766   3.773   3.797   3.832   3.868   3.877
  3.912   3.919   3.929   3.939   3.946   3.969   3.971   3.996
  4.014   4.048   4.077   4.094   4.128   4.136   4.153   4.181
  4.200   4.214   4.223   4.240   4.258   4.300   4.330   4.337
  4.378   4.392   4.417   4.443   4.467   4.477   4.498   4.517
  4.548   4.562   4.582   4.619   4.642   4.662   4.675   4.733
  4.806   4.949   5.088   5.148   5.168   5.205   5.296   5.331
  5.358   5.374   5.391   5.453   5.502   5.519   5.571   5.609
  5.629   5.652   5.662   5.825   5.875   6.082   6.526   7.011
  7.222   7.290   7.439   7.687  24.067  24.138  24.153  24.249
 24.266  49.835
 --------------------------------------------------------------
 
          Ground-State Mulliken Net Atomic Charges

     Atom                 Charge (a.u.)    Spin (a.u.)
  --------------------------------------------------------
      1 O                    -0.251107       0.484316
      2 H                     0.372355      -0.040426
      3 C                    -0.872521       0.528186
      4 H                     0.217086      -0.017165
      5 H                     0.225673      -0.012460
      6 C                    -0.538114      -0.021403
      7 H                     0.220472       0.003074
      8 H                     0.234614       0.043211
      9 C                     0.248632      -0.059846
     10 H                     0.283037       0.044979
     11 C                    -0.813469       0.005444
     12 H                     0.205497       0.000768
     13 H                     0.199687      -0.001018
     14 H                     0.242488       0.000245
     15 C                    -0.478525       0.043924
     16 H                     0.246741      -0.001989
     17 H                     0.257453       0.000160
  --------------------------------------------------------
  Sum of atomic charges =     0.000000
  Sum of spin   charges =     1.000000

 -----------------------------------------------------------------
                    Cartesian Multipole Moments
 -----------------------------------------------------------------
    Charge (ESU x 10^10)
                 0.0000
    Dipole Moment (Debye)
         X      -1.8831      Y      -1.1093      Z       1.1039
       Tot       2.4485
    Quadrupole Moments (Debye-Ang)
        XX     -42.5995     XY      -3.5079     YY     -39.1284
        XZ       1.7692     YZ       0.8106     ZZ     -40.2538
    Octapole Moments (Debye-Ang^2)
       XXX       0.0743    XXY      -5.5856    XYY      -0.0792
       YYY       2.1272    XXZ       2.5496    XYZ       2.2588
       YYZ       0.5555    XZZ       0.5790    YZZ       0.7737
       ZZZ       0.7223
    Hexadecapole Moments (Debye-Ang^3)
      XXXX    -422.0186   XXXY     -13.2612   XXYY    -115.9533
      XYYY       2.6145   YYYY    -251.5540   XXXZ       3.4541
      XXYZ      -0.5044   XYYZ       1.0871   YYYZ      -2.2258
      XXZZ    -101.3092   XYZZ      -1.2452   YYZZ     -70.8592
      XZZZ      -2.5594   YZZZ       2.1153   ZZZZ    -170.3610
 -----------------------------------------------------------------
 Calculating analytic gradient of the SCF energy
 Gradient of Coulomb and Exchange Energy
            1           2           3           4           5           6
    1  -9.2520916  -0.8763663   3.1957155  -1.0766849   2.1712058  -3.0246323
    2  -6.5453776  -1.9000309  -4.2112618  -2.9768406  -2.6996194   2.8284361
    3   5.2365091   0.9562845  -1.1703548  -3.4380963   2.7227683  -1.4750848
            7           8           9          10          11          12
    1   0.7771879  -4.2066225   3.9177929   3.2205598   4.1775944   3.8461684
    2   2.6434551   2.1635309  -0.9059508   0.0663249   2.1999487  -1.3783750
    3   3.7140735  -1.3305417  -1.6563396  -3.5068259   2.0281327   1.1585166
           13          14          15          16          17
    1   0.9005588  -1.4526255  -1.1584750   0.8088051  -1.9680907
    2   3.9831793  -0.0258001   3.7076277   4.5463080  -1.4955544
    3   0.2030046   3.6623679  -1.5475203  -1.3170318  -4.2398619
 Gradient of SCF Energy
            1           2           3           4           5           6
    1  -0.0001167   0.0003150  -0.0001936   0.0000149   0.0000074  -0.0000151
    2   0.0001526  -0.0001881   0.0000446   0.0000010   0.0000083  -0.0000153
    3   0.0000568  -0.0001875   0.0001219   0.0000058  -0.0000007   0.0000452
            7           8           9          10          11          12
    1   0.0000031  -0.0000016   0.0000581  -0.0000022  -0.0000421   0.0000047
    2   0.0000362  -0.0000100  -0.0000017   0.0000220  -0.0000020  -0.0000254
    3   0.0000023  -0.0000292   0.0000513  -0.0000004  -0.0000367   0.0000073
           13          14          15          16          17
    1   0.0000095  -0.0000187  -0.0000090  -0.0000038  -0.0000101
    2   0.0000062   0.0000171  -0.0000859   0.0000122   0.0000282
    3  -0.0000168   0.0000031  -0.0000341   0.0000093   0.0000025
 Max gradient component =       3.150E-04
 RMS gradient           =       7.548E-05
 Gradient time:  CPU 109.41 s  wall 109.78 s
 Geometry Optimization Parameters
   NAtoms,    NIC,     NZ,  NCons,   NDum,   NFix, NCnnct, MaxDiis
       17     126       0       0       0       0       0       0


** GEOMETRY OPTIMIZATION IN DELOCALIZED INTERNAL COORDINATES **
   Searching for a Transition State

   Optimization Cycle:   1

                       Coordinates (Angstroms)
     ATOM              X           Y           Z
      1  O         1.621915    0.655366   -0.557051
      2  H         0.563730    1.282740   -0.328730
      3  C        -0.578321    1.440500    0.239994
      4  H        -0.322117    2.021187    1.131108
      5  H        -1.200522    1.996403   -0.467971
      6  C         1.353274   -0.673450   -0.212380
      7  H         1.023375   -1.255839   -1.090201
      8  H         2.297724   -1.113327    0.150446
      9  C        -0.966833   -0.001751    0.488916
     10  H        -1.678460   -0.047415    1.331426
     11  C        -1.623926   -0.612544   -0.754041
     12  H        -2.592640   -0.138025   -0.954109
     13  H        -1.787424   -1.691261   -0.632312
     14  H        -0.991502   -0.459375   -1.639607
     15  C         0.302311   -0.768440    0.907299
     16  H         0.076759   -1.823559    1.115445
     17  H         0.716722   -0.320346    1.822190
   Point Group: c1    Number of degrees of freedom:    45


   Energy is   -272.177327985


 Attempting to Generate Delocalized Internal Coordinates
 GETINT wrote B to file, NVib is           45
 calling HSSCONV
 HCONV 3*NATOMS:           51
 wrote HINT to file
  writing hessian 

 45 Hessian modes will be used to form the next step
  Hessian Eigenvalues:
     0.002971    0.004827    0.007228    0.008657    0.028819    0.039450
     0.044116    0.046905    0.048572    0.049928    0.055538    0.056381
     0.056804    0.058481    0.063282    0.077979    0.086882    0.099034
     0.111796    0.115772    0.121897    0.137483    0.153072    0.160000
     0.160000    0.160000    0.160965    0.189798    0.194096    0.210501
     0.275018    0.278503    0.291572    0.298456    0.332552    0.332680
     0.333272    0.337047    0.338008    0.338094    0.339258    0.340061
     0.343265    0.343500    0.441016
**WARNING** Hessian does not have the Desired Local Structure

 Transition State Search - Taking P-RFO Step
 Searching for Lamda that Maximizes Along the Lowest mode
 Value Taken    Lamda =   0.00297071
 Searching for Lamda that Minimizes Along All other modes
 Value Taken    Lamda =   0.00000000
 Calculated Step too Large.  Step scaled by  0.002268
 Step Taken.  Stepsize is  0.300000

                             Maximum     Tolerance    Cnvgd?
         Gradient           0.000230      0.000300     YES
         Displacement       0.271004      0.001200      NO
         Energy change     *********      0.000001      NO


 New Cartesian Coordinates Obtained by Inverse Iteration

 Displacement from previous Coordinates is:  0.140436
 ----------------------------------------------------
       Standard Nuclear Orientation (Angstroms)
    I     Atom         X            Y            Z
 ----------------------------------------------------
    1      O       1.623755     0.662239    -0.550800
    2      H       0.547150     1.267533    -0.359478
    3      C      -0.576936     1.439505     0.236642
    4      H      -0.294141     2.014104     1.123651
    5      H      -1.209241     2.003699    -0.455638
    6      C       1.363227    -0.668104    -0.205390
    7      H       1.051542    -1.256908    -1.085586
    8      H       2.307359    -1.096861     0.171310
    9      C      -0.968446    -0.001530     0.486932
   10      H      -1.676740    -0.044739     1.332374
   11      C      -1.632414    -0.611102    -0.752967
   12      H      -2.600427    -0.133678    -0.949494
   13      H      -1.798810    -1.689217    -0.629836
   14      H      -1.003056    -0.460525    -1.641157
   15      C       0.300138    -0.771925     0.903360
   16      H       0.073540    -1.828874     1.100815
   17      H       0.707567    -0.332755     1.825683
 ----------------------------------------------------
 Molecular Point Group                 C1    NOp =  1
 Largest Abelian Subgroup              C1    NOp =  1
 Nuclear Repulsion Energy =   258.7180165227 hartrees
 There are       25 alpha and       24 beta electrons
 Applying Cartesian multipole field
    Component          Value
    ---------          -----
     (2,0,0)        1.00000E-11
     (0,2,0)        2.00000E-11
     (0,0,2)       -3.00000E-11
 Nucleus-field energy     =     0.0000000032 hartrees
 Requested basis set is non-standard
 There are 138 shells and 314 basis functions
 A cutoff of  1.0D-11 yielded   9202 shell pairs
 There are     47958 function pairs (     57796 Cartesian)
 Smallest overlap matrix eigenvalue = 1.36E-05
 Guess MOs from SCF MO coefficient file
Reading MOs from coefficient file
Reading MOs from coefficient file
 An unrestricted hybrid HF-DFT SCF calculation will be
 performed using Pulay DIIS extrapolation
 Exchange:     0.5679 Hartree-Fock + 1.0000 M08SO
 SCF converges when DIIS error is below 1.0E-08
Geometry optimization detected.  Setting ReadMinima to 0
Setting SaveMinima to 0
 ---------------------------------------
  Cycle       Energy         DIIS Error
 ---------------------------------------
    1    -272.1770390125      1.83E-04
    2    -272.1772107177      2.43E-05
    3    -272.1772297885      9.55E-06
    4    -272.1772324124      6.49E-06
    5    -272.1772338649      2.12E-06
    6    -272.1772344337      1.60E-06
    7    -272.1772348623      1.13E-06
    8    -272.1772353359      4.70E-07
    9    -272.1772354141      1.99E-07
   10    -272.1772354219      8.68E-08
   11    -272.1772354228      2.92E-08
   12    -272.1772354229      1.07E-08
   13    -272.1772354226      4.74E-09 Convergence criterion met
 ---------------------------------------
 <S^2> = 0.7589
 SCF time:  CPU 981.87 s  wall 989.00 s
 SCF   energy in the final basis set = -272.1772354226
 Total energy in the final basis set = -272.1772354226
 Analysis of SCF Wavefunction
 
 --------------------------------------------------------------
                    Orbital Energies (a.u.)
 --------------------------------------------------------------
 
 Alpha MOs
 -- Occupied --
-19.574 -10.540 -10.515 -10.512 -10.504 -10.492  -1.124  -0.924
 -0.827  -0.787  -0.709  -0.657  -0.593  -0.552  -0.528  -0.519
 -0.493  -0.493  -0.450  -0.432  -0.424  -0.412  -0.406  -0.352
 -0.302
 -- Virtual --
 -0.028  -0.011  -0.010  -0.004   0.013   0.015   0.017   0.024
  0.031   0.051   0.055   0.063   0.074   0.075   0.083   0.090
  0.104   0.116   0.120   0.123   0.127   0.128   0.133   0.139
  0.139   0.145   0.149   0.153   0.162   0.169   0.202   0.206
  0.211   0.220   0.225   0.241   0.247   0.260   0.270   0.277
  0.284   0.295   0.309   0.312   0.317   0.336   0.344   0.352
  0.367   0.381   0.405   0.431   0.446   0.459   0.464   0.479
  0.501   0.512   0.530   0.549   0.561   0.567   0.570   0.575
  0.583   0.586   0.598   0.599   0.609   0.616   0.635   0.640
  0.650   0.653   0.664   0.672   0.688   0.697   0.711   0.738
  0.780   0.794   0.814   0.838   0.845   0.873   0.899   0.949
  0.960   0.971   0.985   1.000   1.013   1.029   1.048   1.054
  1.068   1.088   1.106   1.134   1.145   1.167   1.180   1.192
  1.206   1.229   1.236   1.244   1.260   1.271   1.290   1.306
  1.314   1.318   1.329   1.338   1.343   1.363   1.382   1.389
  1.398   1.405   1.415   1.433   1.440   1.455   1.465   1.489
  1.490   1.497   1.530   1.545   1.557   1.577   1.594   1.600
  1.647   1.653   1.680   1.691   1.745   1.751   1.801   1.859
  2.007   2.130   2.171   2.330   2.393   2.408   2.465   2.497
  2.518   2.538   2.575   2.626   2.658   2.664   2.700   2.745
  2.749   2.775   2.807   2.817   2.845   2.867   2.871   2.900
  2.931   2.941   2.963   2.968   2.997   3.038   3.043   3.075
  3.116   3.141   3.154   3.174   3.185   3.220   3.256   3.262
  3.289   3.295   3.337   3.341   3.352   3.380   3.394   3.415
  3.431   3.459   3.474   3.501   3.516   3.531   3.573   3.586
  3.603   3.615   3.639   3.654   3.690   3.698   3.709   3.722
  3.747   3.768   3.772   3.802   3.828   3.864   3.880   3.913
  3.928   3.939   3.945   3.957   3.960   3.985   4.012   4.048
  4.051   4.083   4.101   4.125   4.132   4.166   4.184   4.205
  4.213   4.218   4.233   4.259   4.310   4.332   4.336   4.364
  4.384   4.409   4.446   4.461   4.481   4.493   4.516   4.547
  4.561   4.576   4.612   4.651   4.663   4.685   4.746   4.798
  4.920   5.068   5.136   5.184   5.195   5.283   5.315   5.344
  5.374   5.398   5.440   5.458   5.526   5.539   5.581   5.626
  5.649   5.662   5.840   5.866   6.120   6.555   6.977   7.232
  7.261   7.423   7.666  24.061  24.135  24.152  24.251  24.262
 49.835
 
 Beta MOs
 -- Occupied --
-19.559 -10.540 -10.515 -10.503 -10.502 -10.492  -1.092  -0.918
 -0.819  -0.781  -0.699  -0.643  -0.577  -0.549  -0.523  -0.494
 -0.490  -0.478  -0.445  -0.416  -0.408  -0.402  -0.393  -0.339
 -- Virtual --
 -0.083  -0.029  -0.013  -0.011  -0.006   0.012   0.015   0.015
  0.024   0.032   0.051   0.053   0.062   0.072   0.074   0.082
  0.089   0.104   0.114   0.119   0.122   0.126   0.128   0.133
  0.136   0.139   0.145   0.148   0.153   0.162   0.169   0.204
  0.208   0.212   0.221   0.227   0.243   0.247   0.261   0.269
  0.278   0.286   0.299   0.310   0.314   0.319   0.336   0.345
  0.354   0.379   0.383   0.410   0.434   0.447   0.461   0.465
  0.480   0.504   0.514   0.533   0.552   0.564   0.567   0.573
  0.576   0.585   0.587   0.598   0.607   0.611   0.617   0.636
  0.642   0.652   0.656   0.667   0.675   0.691   0.698   0.712
  0.740   0.780   0.796   0.815   0.838   0.848   0.875   0.899
  0.952   0.963   0.974   0.986   1.003   1.015   1.032   1.048
  1.054   1.070   1.089   1.109   1.137   1.149   1.174   1.182
  1.193   1.211   1.230   1.237   1.247   1.265   1.273   1.298
  1.308   1.316   1.319   1.334   1.340   1.345   1.367   1.385
  1.393   1.404   1.408   1.417   1.437   1.441   1.456   1.469
  1.493   1.495   1.499   1.534   1.546   1.563   1.585   1.596
  1.602   1.650   1.658   1.687   1.695   1.750   1.755   1.810
  1.869   2.021   2.130   2.174   2.332   2.394   2.417   2.466
  2.498   2.525   2.539   2.575   2.628   2.656   2.666   2.700
  2.734   2.750   2.787   2.817   2.819   2.846   2.862   2.872
  2.903   2.930   2.946   2.970   2.972   3.004   3.034   3.048
  3.072   3.113   3.143   3.157   3.175   3.194   3.219   3.258
  3.270   3.288   3.301   3.338   3.346   3.361   3.387   3.397
  3.415   3.439   3.460   3.486   3.507   3.526   3.539   3.573
  3.607   3.610   3.618   3.643   3.650   3.689   3.712   3.723
  3.730   3.752   3.768   3.774   3.797   3.829   3.865   3.876
  3.909   3.921   3.930   3.940   3.948   3.968   3.969   4.001
  4.012   4.047   4.078   4.096   4.128   4.136   4.157   4.179
  4.200   4.212   4.220   4.240   4.257   4.300   4.328   4.334
  4.379   4.392   4.412   4.441   4.463   4.479   4.497   4.520
  4.548   4.558   4.578   4.619   4.642   4.664   4.677   4.732
  4.808   4.946   5.091   5.149   5.167   5.208   5.296   5.332
  5.360   5.374   5.391   5.451   5.502   5.518   5.569   5.609
  5.628   5.653   5.660   5.825   5.871   6.089   6.526   7.011
  7.222   7.291   7.433   7.687  24.066  24.136  24.152  24.248
 24.265  49.833
 --------------------------------------------------------------
 
          Ground-State Mulliken Net Atomic Charges

     Atom                 Charge (a.u.)    Spin (a.u.)
  --------------------------------------------------------
      1 O                    -0.248955       0.483186
      2 H                     0.367518      -0.040648
      3 C                    -0.857907       0.529946
      4 H                     0.215932      -0.018323
      5 H                     0.230392      -0.011927
      6 C                    -0.536714      -0.021128
      7 H                     0.219401       0.002992
      8 H                     0.233865       0.042890
      9 C                     0.223354      -0.058500
     10 H                     0.281124       0.045690
     11 C                    -0.800166       0.005514
     12 H                     0.204519       0.000791
     13 H                     0.198055      -0.001117
     14 H                     0.239735       0.000345
     15 C                    -0.473802       0.041898
     16 H                     0.244530      -0.001746
     17 H                     0.259118       0.000138
  --------------------------------------------------------
  Sum of atomic charges =     0.000000
  Sum of spin   charges =     1.000000

 -----------------------------------------------------------------
                    Cartesian Multipole Moments
 -----------------------------------------------------------------
    Charge (ESU x 10^10)
                 0.0000
    Dipole Moment (Debye)
         X      -1.8861      Y      -1.1196      Z       1.0865
       Tot       2.4477
    Quadrupole Moments (Debye-Ang)
        XX     -42.5751     XY      -3.5419     YY     -39.1760
        XZ       1.7703     YZ       0.7844     ZZ     -40.2403
    Octapole Moments (Debye-Ang^2)
       XXX       0.0998    XXY      -5.6551    XYY      -0.2060
       YYY       1.9683    XXZ       2.5579    XYZ       2.2476
       YYZ       0.4971    XZZ       0.6458    YZZ       0.7419
       ZZZ       0.6272
    Hexadecapole Moments (Debye-Ang^3)
      XXXX    -424.3821   XXXY     -13.6918   XXYY    -116.4899
      XYYY       2.2257   YYYY    -251.4002   XXXZ       3.1643
      XXYZ      -0.4281   XYYZ       1.0106   YYYZ      -1.8657
      XXZZ    -101.6284   XYZZ      -1.2913   YYZZ     -70.7791
      XZZZ      -2.9946   YZZZ       2.4439   ZZZZ    -169.4623
 -----------------------------------------------------------------
 Calculating analytic gradient of the SCF energy
 Gradient of Coulomb and Exchange Energy
            1           2           3           4           5           6
    1  -9.2684270  -0.7709946   3.2027731  -1.1827793   2.1961659  -2.9794961
    2  -6.6010776  -1.8271141  -4.2529596  -2.9672531  -2.7164443   2.8112046
    3   5.1425444   1.1219458  -1.1417072  -3.4644945   2.6768469  -1.4387098
            7           8           9          10          11          12
    1   0.6932332  -4.2115735   3.9309216   3.2063894   4.1201645   3.8424326
    2   2.6645403   2.1146942  -0.8530017   0.0583393   2.1821320  -1.3796306
    3   3.7080986  -1.3845105  -1.7346868  -3.5125825   2.0552762   1.1454934
           13          14          15          16          17
    1   0.9216163  -1.4247972  -1.1553814   0.8068657  -1.9271131
    2   3.9803008  -0.0274890   3.7084609   4.5591976  -1.4538998
    3   0.1962292   3.6794842  -1.5130357  -1.2670095  -4.2691823
 Gradient of SCF Energy
            1           2           3           4           5           6
    1   0.0001718  -0.0008542   0.0004069   0.0000582   0.0001705   0.0002680
    2   0.0007326  -0.0015103   0.0005331   0.0000924   0.0000574   0.0001821
    3   0.0003748  -0.0008870   0.0005317   0.0001522  -0.0000116   0.0001402
            7           8           9          10          11          12
    1   0.0002961   0.0000471  -0.0002850   0.0000638  -0.0002135  -0.0000018
    2  -0.0000471   0.0000883   0.0003195   0.0001126  -0.0000239  -0.0000264
    3   0.0001347   0.0000620  -0.0002036  -0.0000359  -0.0000625   0.0000535
           13          14          15          16          17
    1   0.0000119  -0.0001797   0.0000137  -0.0000144   0.0000406
    2  -0.0000440   0.0001045  -0.0005309   0.0000087  -0.0000484
    3  -0.0000338   0.0000409  -0.0002688   0.0000183  -0.0000049
 Max gradient component =       1.510E-03
 RMS gradient           =       3.502E-04
 Gradient time:  CPU 107.47 s  wall 107.53 s
 Geometry Optimization Parameters
   NAtoms,    NIC,     NZ,  NCons,   NDum,   NFix, NCnnct, MaxDiis
       17     126       0       0       0       0       0       0

 Cartesian Hessian Update
 Hessian Updated using Powell/Murtagh-Sargent Update
  Mixing factors:     0.000226 Powell
                      0.999774 Murtagh-Sargent


** GEOMETRY OPTIMIZATION IN DELOCALIZED INTERNAL COORDINATES **
   Searching for a Transition State

   Optimization Cycle:   2

                       Coordinates (Angstroms)
     ATOM              X           Y           Z
      1  O         1.623755    0.662239   -0.550800
      2  H         0.547150    1.267533   -0.359478
      3  C        -0.576936    1.439505    0.236642
      4  H        -0.294141    2.014104    1.123651
      5  H        -1.209241    2.003699   -0.455638
      6  C         1.363227   -0.668104   -0.205390
      7  H         1.051542   -1.256908   -1.085586
      8  H         2.307359   -1.096861    0.171310
      9  C        -0.968446   -0.001530    0.486932
     10  H        -1.676740   -0.044739    1.332374
     11  C        -1.632414   -0.611102   -0.752967
     12  H        -2.600427   -0.133678   -0.949494
     13  H        -1.798810   -1.689217   -0.629836
     14  H        -1.003056   -0.460525   -1.641157
     15  C         0.300138   -0.771925    0.903360
     16  H         0.073540   -1.828874    1.100815
     17  H         0.707567   -0.332755    1.825683
   Point Group: c1    Number of degrees of freedom:    45


   Energy is   -272.177235423

 GETINT wrote B to file, NVib is           45
 Hessian Updated using Powell/Murtagh-Sargent Update
  Mixing factors:     0.951422 Powell
                      0.048578 Murtagh-Sargent

 45 Hessian modes will be used to form the next step
  Hessian Eigenvalues:
     0.001354    0.004865    0.007397    0.008691    0.028786    0.039409
     0.044115    0.046904    0.048571    0.049924    0.055536    0.056376
     0.056801    0.058480    0.063280    0.077978    0.086879    0.099011
     0.111790    0.115772    0.121852    0.137419    0.153013    0.159994
     0.160000    0.160000    0.160938    0.189793    0.194009    0.210500
     0.274861    0.278498    0.291568    0.298456    0.332542    0.332678
     0.333271    0.337047    0.338001    0.338094    0.339257    0.340061
     0.343263    0.343484    0.441010
**WARNING** Hessian does not have the Desired Local Structure

 Transition State Search - Taking P-RFO Step
 Searching for Lamda that Maximizes Along the Lowest mode
 Value Taken    Lamda =   0.00147032
 Searching for Lamda that Minimizes Along All other modes
 Value Taken    Lamda =  -0.00006327
 Calculated Step too Large.  Step scaled by  0.084323
 Step Taken.  Stepsize is  0.300000

                             Maximum     Tolerance    Cnvgd?
         Gradient           0.000969      0.000300      NO
         Displacement       0.274245      0.001200      NO
         Energy change      0.000093      0.000001      NO


 New Cartesian Coordinates Obtained by Inverse Iteration

 Displacement from previous Coordinates is:  0.117535
 ----------------------------------------------------
       Standard Nuclear Orientation (Angstroms)
    I     Atom         X            Y            Z
 ----------------------------------------------------
    1      O       1.621819     0.668901    -0.543974
    2      H       0.528400     1.251195    -0.387500
    3      C      -0.576969     1.438917     0.237501
    4      H      -0.265987     2.004467     1.120512
    5      H      -1.220656     2.013451    -0.435689
    6      C       1.362450    -0.663270    -0.203648
    7      H       1.052238    -1.249771    -1.086203
    8      H       2.306116    -1.092181     0.173880
    9      C      -0.970426    -0.001410     0.487988
   10      H      -1.679691    -0.044947     1.332761
   11      C      -1.629446    -0.612445    -0.753579
   12      H      -2.591695    -0.128365    -0.961794
   13      H      -1.805648    -1.688311    -0.625189
   14      H      -0.990404    -0.473286    -1.636944
   15      C       0.298306    -0.770254     0.904821
   16      H       0.072236    -1.828089     1.098021
   17      H       0.703424    -0.333739     1.829457
 ----------------------------------------------------
 Molecular Point Group                 C1    NOp =  1
 Largest Abelian Subgroup              C1    NOp =  1
 Nuclear Repulsion Energy =   258.8484101804 hartrees
 There are       25 alpha and       24 beta electrons
 Applying Cartesian multipole field
    Component          Value
    ---------          -----
     (2,0,0)        1.00000E-11
     (0,2,0)        2.00000E-11
     (0,0,2)       -3.00000E-11
 Nucleus-field energy     =     0.0000000031 hartrees
 Requested basis set is non-standard
 There are 138 shells and 314 basis functions
 A cutoff of  1.0D-11 yielded   9205 shell pairs
 There are     47965 function pairs (     57803 Cartesian)
 Smallest overlap matrix eigenvalue = 1.36E-05
 Guess MOs from SCF MO coefficient file
Reading MOs from coefficient file
Reading MOs from coefficient file
 An unrestricted hybrid HF-DFT SCF calculation will be
 performed using Pulay DIIS extrapolation
 Exchange:     0.5679 Hartree-Fock + 1.0000 M08SO
 SCF converges when DIIS error is below 1.0E-08
Geometry optimization detected.  Setting ReadMinima to 0
Setting SaveMinima to 0
 ---------------------------------------
  Cycle       Energy         DIIS Error
 ---------------------------------------
    1    -272.1771323828      1.49E-04
    2    -272.1770122827      2.13E-05
    3    -272.1770286279      8.40E-06
    4    -272.1770307976      5.31E-06
    5    -272.1770319361      1.74E-06
    6    -272.1770323860      1.28E-06
    7    -272.1770327511      9.51E-07
    8    -272.1770330407      4.27E-07
    9    -272.1770330926      1.91E-07
   10    -272.1770330990      7.35E-08
   11    -272.1770330996      1.93E-08
   12    -272.1770330992      6.50E-09 Convergence criterion met
 ---------------------------------------
 <S^2> = 0.7589
 SCF time:  CPU 892.75 s  wall 899.31 s
 SCF   energy in the final basis set = -272.1770330992
 Total energy in the final basis set = -272.1770330992
 Analysis of SCF Wavefunction
 
 --------------------------------------------------------------
                    Orbital Energies (a.u.)
 --------------------------------------------------------------
 
 Alpha MOs
 -- Occupied --
-19.575 -10.540 -10.515 -10.512 -10.504 -10.492  -1.125  -0.924
 -0.827  -0.788  -0.709  -0.656  -0.594  -0.552  -0.528  -0.518
 -0.494  -0.493  -0.450  -0.431  -0.425  -0.412  -0.405  -0.352
 -0.302
 -- Virtual --
 -0.028  -0.011  -0.010  -0.004   0.013   0.015   0.017   0.024
  0.031   0.051   0.055   0.063   0.074   0.075   0.083   0.090
  0.104   0.116   0.120   0.123   0.127   0.128   0.133   0.139
  0.139   0.145   0.149   0.153   0.162   0.168   0.201   0.207
  0.211   0.220   0.227   0.240   0.246   0.260   0.270   0.277
  0.284   0.294   0.309   0.312   0.316   0.336   0.345   0.352
  0.365   0.381   0.405   0.430   0.445   0.460   0.465   0.480
  0.500   0.512   0.530   0.551   0.563   0.567   0.570   0.575
  0.584   0.587   0.598   0.599   0.609   0.617   0.635   0.639
  0.650   0.654   0.664   0.671   0.688   0.698   0.710   0.738
  0.780   0.794   0.814   0.839   0.845   0.875   0.900   0.949
  0.959   0.973   0.984   1.000   1.012   1.029   1.046   1.055
  1.069   1.088   1.104   1.132   1.145   1.167   1.180   1.190
  1.208   1.225   1.237   1.249   1.258   1.270   1.290   1.308
  1.315   1.317   1.328   1.338   1.342   1.364   1.382   1.390
  1.399   1.406   1.415   1.431   1.441   1.456   1.466   1.489
  1.491   1.497   1.531   1.546   1.557   1.579   1.596   1.602
  1.648   1.652   1.683   1.690   1.746   1.754   1.807   1.858
  2.003   2.127   2.176   2.328   2.394   2.403   2.465   2.497
  2.523   2.540   2.574   2.629   2.658   2.663   2.698   2.746
  2.754   2.775   2.797   2.818   2.845   2.867   2.871   2.901
  2.931   2.941   2.963   2.968   2.999   3.038   3.046   3.075
  3.116   3.145   3.154   3.175   3.185   3.221   3.260   3.264
  3.293   3.299   3.331   3.342   3.354   3.383   3.393   3.415
  3.431   3.455   3.474   3.500   3.517   3.532   3.572   3.586
  3.604   3.618   3.636   3.654   3.686   3.696   3.709   3.721
  3.748   3.768   3.774   3.802   3.826   3.863   3.878   3.916
  3.931   3.940   3.946   3.957   3.960   3.989   4.018   4.048
  4.051   4.082   4.105   4.128   4.130   4.167   4.186   4.206
  4.211   4.218   4.234   4.257   4.310   4.332   4.339   4.363
  4.383   4.409   4.446   4.460   4.483   4.493   4.519   4.544
  4.562   4.579   4.614   4.652   4.665   4.688   4.742   4.798
  4.917   5.074   5.140   5.187   5.200   5.284   5.319   5.345
  5.378   5.398   5.439   5.457   5.524   5.539   5.582   5.626
  5.649   5.662   5.835   5.863   6.124   6.555   6.978   7.232
  7.265   7.412   7.667  24.061  24.135  24.151  24.250  24.263
 49.834
 
 Beta MOs
 -- Occupied --
-19.559 -10.541 -10.515 -10.503 -10.502 -10.492  -1.092  -0.918
 -0.819  -0.781  -0.698  -0.643  -0.578  -0.549  -0.523  -0.493
 -0.490  -0.478  -0.445  -0.416  -0.408  -0.402  -0.393  -0.339
 -- Virtual --
 -0.082  -0.029  -0.013  -0.011  -0.006   0.012   0.015   0.015
  0.024   0.032   0.051   0.053   0.062   0.072   0.074   0.082
  0.089   0.104   0.114   0.119   0.122   0.127   0.127   0.133
  0.136   0.139   0.144   0.148   0.153   0.162   0.168   0.203
  0.209   0.212   0.221   0.229   0.242   0.246   0.261   0.270
  0.278   0.286   0.298   0.309   0.314   0.318   0.336   0.345
  0.353   0.377   0.383   0.410   0.433   0.446   0.461   0.466
  0.481   0.504   0.514   0.533   0.553   0.565   0.568   0.573
  0.577   0.586   0.587   0.598   0.607   0.612   0.618   0.636
  0.642   0.652   0.657   0.667   0.673   0.691   0.699   0.711
  0.739   0.780   0.796   0.816   0.839   0.848   0.877   0.901
  0.952   0.962   0.975   0.985   1.002   1.014   1.032   1.047
  1.055   1.071   1.089   1.109   1.134   1.148   1.174   1.182
  1.192   1.213   1.225   1.237   1.251   1.263   1.273   1.298
  1.310   1.316   1.319   1.332   1.340   1.345   1.368   1.385
  1.394   1.404   1.408   1.417   1.436   1.442   1.458   1.470
  1.493   1.495   1.500   1.535   1.547   1.563   1.586   1.598
  1.604   1.651   1.658   1.690   1.694   1.750   1.758   1.815
  1.868   2.018   2.127   2.179   2.329   2.394   2.413   2.467
  2.497   2.528   2.541   2.575   2.632   2.655   2.666   2.699
  2.738   2.751   2.788   2.809   2.820   2.846   2.861   2.874
  2.903   2.930   2.947   2.966   2.974   3.007   3.033   3.052
  3.072   3.113   3.148   3.156   3.175   3.195   3.221   3.260
  3.273   3.297   3.301   3.338   3.343   3.362   3.390   3.396
  3.417   3.439   3.457   3.488   3.506   3.528   3.541   3.572
  3.607   3.610   3.619   3.641   3.651   3.688   3.712   3.722
  3.729   3.751   3.770   3.776   3.798   3.829   3.861   3.875
  3.911   3.927   3.932   3.940   3.949   3.966   3.971   4.007
  4.013   4.048   4.077   4.099   4.125   4.137   4.161   4.180
  4.201   4.213   4.219   4.239   4.256   4.301   4.327   4.335
  4.378   4.391   4.412   4.442   4.462   4.481   4.496   4.523
  4.546   4.560   4.581   4.621   4.641   4.667   4.679   4.728
  4.810   4.944   5.094   5.153   5.168   5.214   5.296   5.334
  5.364   5.377   5.391   5.451   5.501   5.516   5.569   5.610
  5.628   5.652   5.661   5.823   5.865   6.094   6.525   7.012
  7.222   7.294   7.424   7.687  24.066  24.136  24.151  24.247
 24.266  49.833
 --------------------------------------------------------------
 
          Ground-State Mulliken Net Atomic Charges

     Atom                 Charge (a.u.)    Spin (a.u.)
  --------------------------------------------------------
      1 O                    -0.244782       0.481795
      2 H                     0.358830      -0.040515
      3 C                    -0.845962       0.531380
      4 H                     0.216166      -0.019481
      5 H                     0.234363      -0.011433
      6 C                    -0.539752      -0.020611
      7 H                     0.220153       0.002895
      8 H                     0.233124       0.042921
      9 C                     0.207850      -0.057227
     10 H                     0.280307       0.046720
     11 C                    -0.790845       0.005789
     12 H                     0.203024       0.000797
     13 H                     0.198160      -0.001251
     14 H                     0.237523       0.000355
     15 C                    -0.472779       0.039312
     16 H                     0.242463      -0.001516
     17 H                     0.262158       0.000071
  --------------------------------------------------------
  Sum of atomic charges =     0.000000
  Sum of spin   charges =     1.000000

 -----------------------------------------------------------------
                    Cartesian Multipole Moments
 -----------------------------------------------------------------
    Charge (ESU x 10^10)
                 0.0000
    Dipole Moment (Debye)
         X      -1.8879      Y      -1.1331      Z       1.0635
       Tot       2.4453
    Quadrupole Moments (Debye-Ang)
        XX     -42.5610     XY      -3.5703     YY     -39.2277
        XZ       1.7573     YZ       0.7703     ZZ     -40.2195
    Octapole Moments (Debye-Ang^2)
       XXX       0.1869    XXY      -5.7140    XYY      -0.3020
       YYY       1.7887    XXZ       2.4831    XYZ       2.2519
       YYZ       0.4310    XZZ       0.7333    YZZ       0.6851
       ZZZ       0.4668
    Hexadecapole Moments (Debye-Ang^3)
      XXXX    -423.4263   XXXY     -14.1156   XXYY    -116.2586
      XYYY       1.7325   YYYY    -251.1963   XXXZ       3.0758
      XXYZ      -0.4875   XYYZ       1.0405   YYYZ      -1.8957
      XXZZ    -101.4557   XYZZ      -1.3039   YYZZ     -70.8255
      XZZZ      -3.1564   YZZZ       2.4449   ZZZZ    -169.3857
 -----------------------------------------------------------------
 Calculating analytic gradient of the SCF energy
 Gradient of Coulomb and Exchange Energy
            1           2           3           4           5           6
    1  -9.2937084  -0.6603732   3.2052114  -1.3052010   2.2392541  -2.9832191
    2  -6.6638544  -1.7494696  -4.3249038  -2.9402371  -2.7487405   2.8087560
    3   5.0301465   1.2772140  -1.0793116  -3.4949718   2.6174313  -1.4195708
            7           8           9          10          11          12
    1   0.6973279  -4.2178599   3.9635055   3.2146943   4.0768693   3.8283553
    2   2.6463875   2.1212864  -0.7499110   0.0591418   2.1306562  -1.3981277
    3   3.7208699  -1.3894827  -1.8825659  -3.5051679   2.1059486   1.1863881
           13          14          15          16          17
    1   0.9539567  -1.4610370  -1.1479028   0.8012719  -1.9111450
    2   3.9807148   0.0252430   3.6793364   4.5732036  -1.4494817
    3   0.1766535   3.6712288  -1.4850951  -1.2495658  -4.2801490
 Gradient of SCF Energy
            1           2           3           4           5           6
    1   0.0006046  -0.0020005   0.0012053   0.0000373   0.0001992   0.0001018
    2   0.0014648  -0.0031261   0.0011252   0.0000114   0.0001880   0.0002841
    3   0.0008736  -0.0015037   0.0009734   0.0001717   0.0000506  -0.0003654
            7           8           9          10          11          12
    1   0.0001360   0.0000001  -0.0002785   0.0001368  -0.0000429   0.0000113
    2  -0.0000247   0.0000144   0.0001531   0.0001017  -0.0001017  -0.0000224
    3  -0.0000937   0.0002392  -0.0004321   0.0000629  -0.0000449   0.0000577
           13          14          15          16          17
    1   0.0000164   0.0000443  -0.0000764  -0.0000405  -0.0000544
    2  -0.0000092   0.0000119  -0.0000682   0.0000585  -0.0000608
    3  -0.0000444   0.0000118  -0.0000241  -0.0000835   0.0001509
 Max gradient component =       3.126E-03
 RMS gradient           =       6.830E-04
 Gradient time:  CPU 110.47 s  wall 110.84 s
 Geometry Optimization Parameters
   NAtoms,    NIC,     NZ,  NCons,   NDum,   NFix, NCnnct, MaxDiis
       17     126       0       0       0       0       0       0

 Cartesian Hessian Update
 Hessian Updated using Powell/Murtagh-Sargent Update
  Mixing factors:     0.386500 Powell
                      0.613500 Murtagh-Sargent


** GEOMETRY OPTIMIZATION IN DELOCALIZED INTERNAL COORDINATES **
   Searching for a Transition State

   Optimization Cycle:   3

                       Coordinates (Angstroms)
     ATOM              X           Y           Z
      1  O         1.621819    0.668901   -0.543974
      2  H         0.528400    1.251195   -0.387500
      3  C        -0.576969    1.438917    0.237501
      4  H        -0.265987    2.004467    1.120512
      5  H        -1.220656    2.013451   -0.435689
      6  C         1.362450   -0.663270   -0.203648
      7  H         1.052238   -1.249771   -1.086203
      8  H         2.306116   -1.092181    0.173880
      9  C        -0.970426   -0.001410    0.487988
     10  H        -1.679691   -0.044947    1.332761
     11  C        -1.629446   -0.612445   -0.753579
     12  H        -2.591695   -0.128365   -0.961794
     13  H        -1.805648   -1.688311   -0.625189
     14  H        -0.990404   -0.473286   -1.636944
     15  C         0.298306   -0.770254    0.904821
     16  H         0.072236   -1.828089    1.098021
     17  H         0.703424   -0.333739    1.829457
   Point Group: c1    Number of degrees of freedom:    45


   Energy is   -272.177033099

 GETINT wrote B to file, NVib is           45
 Hessian Updated using Powell/Murtagh-Sargent Update
  Mixing factors:     0.981834 Powell
                      0.018166 Murtagh-Sargent

 45 Hessian modes will be used to form the next step
  Hessian Eigenvalues:
     0.001716    0.004871    0.007448    0.008691    0.028799    0.039470
     0.044115    0.046913    0.048621    0.049938    0.055540    0.056377
     0.056805    0.058480    0.063280    0.077987    0.086923    0.099017
     0.111790    0.115789    0.121855    0.137433    0.153013    0.159995
     0.160000    0.160007    0.161112    0.189884    0.194050    0.210508
     0.274971    0.278501    0.291571    0.298459    0.332557    0.332678
     0.333272    0.337050    0.338008    0.338096    0.339257    0.340061
     0.343263    0.343484    0.441024
**WARNING** Hessian does not have the Desired Local Structure

 Transition State Search - Taking P-RFO Step
 Searching for Lamda that Maximizes Along the Lowest mode
 Value Taken    Lamda =   0.00216911
 Searching for Lamda that Minimizes Along All other modes
 Value Taken    Lamda =  -0.00003046
 Calculated Step too Large.  Step scaled by  0.137087
 Step Taken.  Stepsize is  0.300000

                             Maximum     Tolerance    Cnvgd?
         Gradient           0.001014      0.000300      NO
         Displacement       0.274397      0.001200      NO
         Energy change      0.000202      0.000001      NO


 New Cartesian Coordinates Obtained by Inverse Iteration

 Displacement from previous Coordinates is:  0.122667
 ----------------------------------------------------
       Standard Nuclear Orientation (Angstroms)
    I     Atom         X            Y            Z
 ----------------------------------------------------
    1      O       1.623379     0.678429    -0.531759
    2      H       0.511702     1.232140    -0.415670
    3      C      -0.576342     1.437546     0.234683
    4      H      -0.237773     1.993848     1.113054
    5      H      -1.229993     2.022704    -0.419653
    6      C       1.368119    -0.656915    -0.198491
    7      H       1.066168    -1.242210    -1.084572
    8      H       2.311565    -1.082647     0.182723
    9      C      -0.972308    -0.001820     0.486997
   10      H      -1.681967    -0.044116     1.331622
   11      C      -1.633630    -0.612881    -0.753312
   12      H      -2.591076    -0.121537    -0.966724
   13      H      -1.819630    -1.686453    -0.619810
   14      H      -0.991416    -0.483914    -1.635892
   15      C       0.297163    -0.771317     0.904017
   16      H       0.072250    -1.830672     1.090666
   17      H       0.697856    -0.339324     1.832544
 ----------------------------------------------------
 Molecular Point Group                 C1    NOp =  1
 Largest Abelian Subgroup              C1    NOp =  1
 Nuclear Repulsion Energy =   258.8148702064 hartrees
 There are       25 alpha and       24 beta electrons
 Applying Cartesian multipole field
    Component          Value
    ---------          -----
     (2,0,0)        1.00000E-11
     (0,2,0)        2.00000E-11
     (0,0,2)       -3.00000E-11
 Nucleus-field energy     =     0.0000000032 hartrees
 Requested basis set is non-standard
 There are 138 shells and 314 basis functions
 A cutoff of  1.0D-11 yielded   9208 shell pairs
 There are     47970 function pairs (     57808 Cartesian)
 Smallest overlap matrix eigenvalue = 1.36E-05
 Guess MOs from SCF MO coefficient file
Reading MOs from coefficient file
Reading MOs from coefficient file
 An unrestricted hybrid HF-DFT SCF calculation will be
 performed using Pulay DIIS extrapolation
 Exchange:     0.5679 Hartree-Fock + 1.0000 M08SO
 SCF converges when DIIS error is below 1.0E-08
Geometry optimization detected.  Setting ReadMinima to 0
Setting SaveMinima to 0
 ---------------------------------------
  Cycle       Energy         DIIS Error
 ---------------------------------------
    1    -272.1768100478      1.68E-04
    2    -272.1766127504      2.25E-05
    3    -272.1766314866      8.98E-06
    4    -272.1766342654      7.86E-06
    5    -272.1766360665      2.69E-06
    6    -272.1766368038      1.71E-06
    7    -272.1766376061      1.12E-06
    8    -272.1766381301      3.94E-07
    9    -272.1766381738      1.79E-07
   10    -272.1766381791      7.34E-08
   11    -272.1766381795      2.34E-08
   12    -272.1766381794      7.65E-09 Convergence criterion met
 ---------------------------------------
 <S^2> = 0.7589
 SCF time:  CPU 910.24 s  wall 917.51 s
 SCF   energy in the final basis set = -272.1766381794
 Total energy in the final basis set = -272.1766381794
 Analysis of SCF Wavefunction
 
 --------------------------------------------------------------
                    Orbital Energies (a.u.)
 --------------------------------------------------------------
 
 Alpha MOs
 -- Occupied --
-19.575 -10.540 -10.515 -10.512 -10.504 -10.492  -1.125  -0.924
 -0.827  -0.788  -0.708  -0.656  -0.594  -0.552  -0.527  -0.517
 -0.494  -0.493  -0.451  -0.431  -0.426  -0.412  -0.405  -0.352
 -0.302
 -- Virtual --
 -0.028  -0.011  -0.010  -0.004   0.013   0.015   0.017   0.024
  0.032   0.051   0.055   0.063   0.074   0.075   0.083   0.089
  0.104   0.116   0.120   0.123   0.127   0.128   0.133   0.139
  0.139   0.145   0.148   0.153   0.162   0.168   0.200   0.208
  0.211   0.221   0.229   0.239   0.246   0.260   0.270   0.276
  0.283   0.294   0.309   0.312   0.315   0.336   0.345   0.352
  0.363   0.381   0.405   0.429   0.444   0.460   0.466   0.481
  0.500   0.512   0.531   0.552   0.565   0.568   0.569   0.576
  0.584   0.588   0.597   0.600   0.610   0.617   0.635   0.638
  0.649   0.655   0.664   0.670   0.688   0.699   0.710   0.737
  0.779   0.793   0.815   0.839   0.844   0.876   0.902   0.948
  0.957   0.973   0.983   0.999   1.012   1.029   1.044   1.056
  1.070   1.088   1.102   1.130   1.143   1.166   1.179   1.189
  1.209   1.220   1.237   1.251   1.256   1.269   1.290   1.310
  1.315   1.316   1.327   1.337   1.341   1.365   1.381   1.391
  1.398   1.409   1.415   1.430   1.441   1.458   1.466   1.488
  1.492   1.498   1.532   1.546   1.557   1.579   1.597   1.604
  1.649   1.650   1.684   1.691   1.745   1.756   1.811   1.856
  1.998   2.124   2.180   2.324   2.393   2.402   2.466   2.498
  2.526   2.541   2.572   2.631   2.656   2.661   2.698   2.745
  2.758   2.774   2.785   2.818   2.846   2.868   2.870   2.902
  2.930   2.941   2.961   2.969   3.000   3.038   3.049   3.075
  3.116   3.146   3.156   3.174   3.186   3.221   3.260   3.270
  3.294   3.308   3.325   3.342   3.354   3.386   3.391   3.414
  3.432   3.450   3.473   3.497   3.518   3.532   3.570   3.588
  3.603   3.618   3.633   3.653   3.682   3.696   3.708   3.720
  3.747   3.768   3.775   3.801   3.822   3.860   3.875   3.917
  3.932   3.940   3.945   3.956   3.962   3.991   4.023   4.045
  4.051   4.081   4.108   4.127   4.133   4.167   4.187   4.207
  4.208   4.217   4.236   4.255   4.309   4.330   4.341   4.361
  4.381   4.405   4.446   4.459   4.485   4.493   4.521   4.541
  4.561   4.578   4.616   4.652   4.666   4.691   4.736   4.798
  4.914   5.079   5.144   5.189   5.207   5.285   5.322   5.346
  5.380   5.397   5.437   5.456   5.523   5.538   5.583   5.625
  5.648   5.662   5.827   5.860   6.126   6.554   6.980   7.231
  7.267   7.400   7.667  24.060  24.133  24.150  24.248  24.262
 49.833
 
 Beta MOs
 -- Occupied --
-19.559 -10.541 -10.515 -10.503 -10.502 -10.492  -1.092  -0.918
 -0.819  -0.781  -0.698  -0.642  -0.578  -0.548  -0.523  -0.492
 -0.490  -0.478  -0.445  -0.416  -0.408  -0.402  -0.393  -0.340
 -- Virtual --
 -0.082  -0.029  -0.013  -0.011  -0.006   0.012   0.014   0.015
  0.024   0.032   0.051   0.053   0.062   0.072   0.074   0.082
  0.089   0.104   0.114   0.119   0.122   0.127   0.127   0.132
  0.136   0.139   0.144   0.148   0.152   0.162   0.168   0.202
  0.210   0.212   0.221   0.231   0.241   0.246   0.261   0.270
  0.277   0.286   0.297   0.309   0.313   0.318   0.336   0.345
  0.353   0.374   0.383   0.411   0.432   0.445   0.462   0.466
  0.482   0.503   0.514   0.533   0.553   0.565   0.570   0.573
  0.578   0.587   0.589   0.598   0.608   0.612   0.618   0.636
  0.642   0.652   0.659   0.666   0.672   0.691   0.699   0.711
  0.739   0.779   0.795   0.816   0.839   0.847   0.878   0.902
  0.952   0.960   0.976   0.983   1.001   1.014   1.032   1.045
  1.057   1.071   1.089   1.108   1.132   1.146   1.174   1.181
  1.190   1.214   1.220   1.238   1.255   1.260   1.272   1.298
  1.312   1.316   1.319   1.331   1.339   1.344   1.370   1.384
  1.395   1.403   1.411   1.417   1.434   1.443   1.460   1.470
  1.491   1.495   1.502   1.536   1.547   1.563   1.587   1.600
  1.605   1.651   1.656   1.690   1.696   1.748   1.760   1.819
  1.867   2.014   2.123   2.183   2.325   2.394   2.410   2.469
  2.497   2.529   2.543   2.573   2.635   2.652   2.666   2.698
  2.741   2.752   2.787   2.798   2.820   2.845   2.861   2.876
  2.905   2.929   2.947   2.964   2.975   3.008   3.033   3.055
  3.072   3.113   3.152   3.156   3.174   3.197   3.221   3.262
  3.277   3.301   3.305   3.335   3.342   3.362   3.392   3.394
  3.418   3.438   3.452   3.489   3.502   3.530   3.541   3.571
  3.606   3.609   3.620   3.639   3.651   3.688   3.711   3.720
  3.726   3.749   3.770   3.777   3.797   3.826   3.857   3.874
  3.911   3.931   3.933   3.940   3.950   3.963   3.971   4.009
  4.017   4.048   4.076   4.102   4.123   4.138   4.166   4.179
  4.200   4.214   4.218   4.239   4.256   4.301   4.326   4.336
  4.376   4.390   4.408   4.442   4.461   4.483   4.495   4.525
  4.545   4.559   4.580   4.622   4.642   4.668   4.681   4.725
  4.812   4.941   5.097   5.156   5.169   5.221   5.298   5.334
  5.367   5.378   5.392   5.449   5.501   5.515   5.569   5.610
  5.627   5.652   5.661   5.820   5.857   6.097   6.524   7.013
  7.222   7.296   7.413   7.687  24.065  24.134  24.150  24.245
 24.264  49.832
 --------------------------------------------------------------
 
          Ground-State Mulliken Net Atomic Charges

     Atom                 Charge (a.u.)    Spin (a.u.)
  --------------------------------------------------------
      1 O                    -0.239685       0.479664
      2 H                     0.346976      -0.040171
      3 C                    -0.831331       0.533714
      4 H                     0.218274      -0.020695
      5 H                     0.238225      -0.011006
      6 C                    -0.540243      -0.019961
      7 H                     0.220050       0.002792
      8 H                     0.232044       0.042730
      9 C                     0.190230      -0.055975
     10 H                     0.278861       0.047639
     11 C                    -0.778678       0.006003
     12 H                     0.201718       0.000802
     13 H                     0.196983      -0.001352
     14 H                     0.234648       0.000419
     15 C                    -0.473386       0.036667
     16 H                     0.239630      -0.001284
     17 H                     0.265685       0.000014
  --------------------------------------------------------
  Sum of atomic charges =     0.000000
  Sum of spin   charges =     1.000000

 -----------------------------------------------------------------
                    Cartesian Multipole Moments
 -----------------------------------------------------------------
    Charge (ESU x 10^10)
                 0.0000
    Dipole Moment (Debye)
         X      -1.8904      Y      -1.1494      Z       1.0329
       Tot       2.4417
    Quadrupole Moments (Debye-Ang)
        XX     -42.5357     XY      -3.6180     YY     -39.2907
        XZ       1.7377     YZ       0.7454     ZZ     -40.2000
    Octapole Moments (Debye-Ang^2)
       XXX       0.2128    XXY      -5.8098    XYY      -0.4442
       YYY       1.5694    XXZ       2.4083    XYZ       2.2458
       YYZ       0.3529    XZZ       0.8190    YZZ       0.6289
       ZZZ       0.2327
    Hexadecapole Moments (Debye-Ang^3)
      XXXX    -424.7090   XXXY     -14.7774   XXYY    -116.4705
      XYYY       1.0566   YYYY    -250.9934   XXXZ       2.6156
      XXYZ      -0.4712   XYYZ       0.9433   YYYZ      -1.7309
      XXZZ    -101.5739   XYZZ      -1.3826   YYZZ     -70.7936
      XZZZ      -3.6812   YZZZ       2.6121   ZZZZ    -168.6632
 -----------------------------------------------------------------
 Calculating analytic gradient of the SCF energy
 Gradient of Coulomb and Exchange Energy
            1           2           3           4           5           6
    1  -9.3113856  -0.5428167   3.2104630  -1.4322693   2.2922835  -2.9763438
    2  -6.7553264  -1.6466152  -4.3868998  -2.9062396  -2.7838476   2.7912244
    3   4.8775655   1.4196665  -0.9731305  -3.5213609   2.5614343  -1.3973890
            7           8           9          10          11          12
    1   0.6626379  -4.2276389   3.9403157   3.2243692   4.0169150   3.8111641
    2   2.6380359   2.1115181  -0.6796329   0.0570287   2.0874077  -1.4148857
    3   3.7249014  -1.3972919  -2.0309989  -3.4927260   2.1450722   1.2051047
           13          14          15          16          17
    1   0.9964523  -1.4636550  -1.1032571   0.7894521  -1.8866864
    2   3.9759363   0.0586671   3.7013555   4.5873657  -1.4350922
    3   0.1542056   3.6741727  -1.4381670  -1.2203324  -4.2907262
 Gradient of SCF Energy
            1           2           3           4           5           6
    1   0.0011247  -0.0031553   0.0018203   0.0000388   0.0001776   0.0002972
    2   0.0023539  -0.0049368   0.0018666  -0.0001160   0.0004079   0.0003130
    3   0.0014660  -0.0020745   0.0010570   0.0002428   0.0001865  -0.0006672
            7           8           9          10          11          12
    1   0.0001731   0.0000232  -0.0003992   0.0000062  -0.0001189   0.0000179
    2  -0.0000609   0.0000008   0.0003029   0.0000940  -0.0000157  -0.0000271
    3   0.0000525   0.0001891  -0.0006022  -0.0000449  -0.0000410   0.0000097
           13          14          15          16          17
    1  -0.0000001  -0.0000025  -0.0000079  -0.0000002   0.0000052
    2  -0.0000207   0.0000294  -0.0000716  -0.0000036  -0.0001163
    3  -0.0000210   0.0000544   0.0001847  -0.0000862   0.0000942
 Max gradient component =       4.937E-03
 RMS gradient           =       1.059E-03
 Gradient time:  CPU 106.26 s  wall 106.46 s
 Geometry Optimization Parameters
   NAtoms,    NIC,     NZ,  NCons,   NDum,   NFix, NCnnct, MaxDiis
       17     126       0       0       0       0       0       0

 Cartesian Hessian Update
 Hessian Updated using Powell/Murtagh-Sargent Update
  Mixing factors:     0.897842 Powell
                      0.102158 Murtagh-Sargent


** GEOMETRY OPTIMIZATION IN DELOCALIZED INTERNAL COORDINATES **
   Searching for a Transition State

   Optimization Cycle:   4

                       Coordinates (Angstroms)
     ATOM              X           Y           Z
      1  O         1.623379    0.678429   -0.531759
      2  H         0.511702    1.232140   -0.415670
      3  C        -0.576342    1.437546    0.234683
      4  H        -0.237773    1.993848    1.113054
      5  H        -1.229993    2.022704   -0.419653
      6  C         1.368119   -0.656915   -0.198491
      7  H         1.066168   -1.242210   -1.084572
      8  H         2.311565   -1.082647    0.182723
      9  C        -0.972308   -0.001820    0.486997
     10  H        -1.681967   -0.044116    1.331622
     11  C        -1.633630   -0.612881   -0.753312
     12  H        -2.591076   -0.121537   -0.966724
     13  H        -1.819630   -1.686453   -0.619810
     14  H        -0.991416   -0.483914   -1.635892
     15  C         0.297163   -0.771317    0.904017
     16  H         0.072250   -1.830672    1.090666
     17  H         0.697856   -0.339324    1.832544
   Point Group: c1    Number of degrees of freedom:    45


   Energy is   -272.176638179

 GETINT wrote B to file, NVib is           45
 Hessian Updated using Powell/Murtagh-Sargent Update
  Mixing factors:     0.929564 Powell
                      0.070436 Murtagh-Sargent

 45 Hessian modes will be used to form the next step
  Hessian Eigenvalues:
     0.002331    0.004886    0.007454    0.008696    0.028855    0.039478
     0.044118    0.046917    0.048622    0.049938    0.055540    0.056402
     0.056806    0.058485    0.063287    0.078000    0.086923    0.099034
     0.111793    0.115791    0.121860    0.137493    0.153025    0.160000
     0.160001    0.160007    0.161122    0.189886    0.194173    0.210526
     0.275152    0.278525    0.291571    0.298465    0.332569    0.332678
     0.333273    0.337052    0.338011    0.338098    0.339258    0.340061
     0.343265    0.343484    0.441047
**WARNING** Hessian does not have the Desired Local Structure

 Transition State Search - Taking P-RFO Step
 Searching for Lamda that Maximizes Along the Lowest mode
 Value Taken    Lamda =   0.00318358
 Searching for Lamda that Minimizes Along All other modes
 Value Taken    Lamda =  -0.00006260
 Calculated Step too Large.  Step scaled by  0.155147
 Step Taken.  Stepsize is  0.300000

                             Maximum     Tolerance    Cnvgd?
         Gradient           0.001696      0.000300      NO
         Displacement       0.269946      0.001200      NO
         Energy change      0.000395      0.000001      NO


 New Cartesian Coordinates Obtained by Inverse Iteration

 Displacement from previous Coordinates is:  0.134480
 ----------------------------------------------------
       Standard Nuclear Orientation (Angstroms)
    I     Atom         X            Y            Z
 ----------------------------------------------------
    1      O       1.623322     0.690365    -0.517942
    2      H       0.494289     1.210510    -0.441760
    3      C      -0.576014     1.436079     0.232966
    4      H      -0.208659     1.981955     1.105907
    5      H      -1.238397     2.032756    -0.401937
    6      C       1.371143    -0.648875    -0.194984
    7      H       1.073738    -1.229222    -1.085933
    8      H       2.314516    -1.074399     0.186104
    9      C      -0.974431    -0.002555     0.486897
   10      H      -1.684819    -0.044217     1.331067
   11      C      -1.635191    -0.615081    -0.752949
   12      H      -2.583485    -0.111521    -0.978559
   13      H      -1.838402    -1.684351    -0.610687
   14      H      -0.984469    -0.504490    -1.631879
   15      C       0.295962    -0.771170     0.903919
   16      H       0.072599    -1.831970     1.084241
   17      H       0.692362    -0.342951     1.835951
 ----------------------------------------------------
 Molecular Point Group                 C1    NOp =  1
 Largest Abelian Subgroup              C1    NOp =  1
 Nuclear Repulsion Energy =   258.8711225847 hartrees
 There are       25 alpha and       24 beta electrons
 Applying Cartesian multipole field
    Component          Value
    ---------          -----
     (2,0,0)        1.00000E-11
     (0,2,0)        2.00000E-11
     (0,0,2)       -3.00000E-11
 Nucleus-field energy     =     0.0000000032 hartrees
 Requested basis set is non-standard
 There are 138 shells and 314 basis functions
 A cutoff of  1.0D-11 yielded   9210 shell pairs
 There are     47976 function pairs (     57810 Cartesian)
 Smallest overlap matrix eigenvalue = 1.36E-05
 Guess MOs from SCF MO coefficient file
Reading MOs from coefficient file
Reading MOs from coefficient file
 An unrestricted hybrid HF-DFT SCF calculation will be
 performed using Pulay DIIS extrapolation
 Exchange:     0.5679 Hartree-Fock + 1.0000 M08SO
 SCF converges when DIIS error is below 1.0E-08
Geometry optimization detected.  Setting ReadMinima to 0
Setting SaveMinima to 0
 ---------------------------------------
  Cycle       Energy         DIIS Error
 ---------------------------------------
    1    -272.1761724868      1.85E-04
    2    -272.1759875437      2.58E-05
    3    -272.1760099415      1.30E-05
    4    -272.1760135274      8.22E-06
    5    -272.1760157378      3.41E-06
    6    -272.1760164823      1.78E-06
    7    -272.1760173318      1.17E-06
    8    -272.1760179070      4.70E-07
    9    -272.1760179613      2.28E-07
   10    -272.1760179699      7.64E-08
   11    -272.1760179707      2.26E-08
   12    -272.1760179706      8.47E-09 Convergence criterion met
 ---------------------------------------
 <S^2> = 0.7589
 SCF time:  CPU 915.56 s  wall 921.63 s
 SCF   energy in the final basis set = -272.1760179706
 Total energy in the final basis set = -272.1760179706
 Analysis of SCF Wavefunction
 
 --------------------------------------------------------------
                    Orbital Energies (a.u.)
 --------------------------------------------------------------
 
 Alpha MOs
 -- Occupied --
-19.575 -10.540 -10.515 -10.512 -10.503 -10.493  -1.125  -0.924
 -0.826  -0.788  -0.708  -0.656  -0.595  -0.552  -0.527  -0.516
 -0.494  -0.493  -0.451  -0.431  -0.426  -0.412  -0.405  -0.352
 -0.301
 -- Virtual --
 -0.028  -0.011  -0.010  -0.004   0.013   0.015   0.017   0.024
  0.032   0.051   0.055   0.063   0.074   0.075   0.083   0.089
  0.105   0.116   0.120   0.123   0.127   0.128   0.133   0.139
  0.139   0.145   0.148   0.153   0.163   0.167   0.199   0.209
  0.211   0.221   0.230   0.238   0.245   0.260   0.270   0.275
  0.283   0.293   0.308   0.312   0.315   0.335   0.345   0.351
  0.361   0.381   0.405   0.428   0.443   0.460   0.466   0.482
  0.499   0.512   0.531   0.552   0.564   0.569   0.570   0.577
  0.584   0.590   0.596   0.601   0.610   0.618   0.636   0.637
  0.649   0.656   0.662   0.670   0.688   0.699   0.710   0.736
  0.778   0.792   0.816   0.840   0.844   0.877   0.903   0.948
  0.956   0.973   0.982   0.998   1.013   1.029   1.041   1.058
  1.070   1.088   1.101   1.129   1.141   1.166   1.178   1.188
  1.211   1.214   1.236   1.250   1.257   1.269   1.291   1.310
  1.316   1.317   1.326   1.337   1.340   1.366   1.381   1.392
  1.397   1.411   1.415   1.428   1.441   1.460   1.466   1.487
  1.494   1.500   1.533   1.546   1.557   1.579   1.599   1.606
  1.649   1.650   1.684   1.695   1.743   1.760   1.816   1.854
  1.994   2.121   2.184   2.320   2.390   2.404   2.465   2.500
  2.527   2.540   2.572   2.632   2.654   2.661   2.697   2.743
  2.762   2.774   2.776   2.818   2.846   2.868   2.870   2.904
  2.930   2.940   2.960   2.972   3.001   3.037   3.052   3.075
  3.114   3.145   3.158   3.176   3.187   3.222   3.260   3.278
  3.294   3.315   3.322   3.342   3.355   3.387   3.390   3.412
  3.433   3.446   3.471   3.493   3.518   3.532   3.567   3.589
  3.602   3.619   3.629   3.651   3.678   3.696   3.708   3.719
  3.746   3.768   3.776   3.800   3.818   3.857   3.873   3.919
  3.932   3.941   3.945   3.955   3.966   3.995   4.027   4.042
  4.051   4.080   4.112   4.125   4.137   4.167   4.190   4.205
  4.210   4.215   4.238   4.253   4.308   4.329   4.346   4.357
  4.380   4.403   4.446   4.459   4.486   4.494   4.524   4.538
  4.563   4.580   4.618   4.652   4.666   4.693   4.730   4.800
  4.911   5.084   5.150   5.191   5.216   5.287   5.325   5.347
  5.382   5.396   5.435   5.454   5.522   5.537   5.584   5.624
  5.648   5.661   5.817   5.856   6.128   6.553   6.983   7.230
  7.270   7.385   7.668  24.059  24.132  24.148  24.246  24.261
 49.832
 
 Beta MOs
 -- Occupied --
-19.559 -10.541 -10.515 -10.503 -10.502 -10.492  -1.093  -0.918
 -0.818  -0.781  -0.698  -0.642  -0.579  -0.548  -0.523  -0.491
 -0.490  -0.479  -0.445  -0.417  -0.409  -0.403  -0.394  -0.340
 -- Virtual --
 -0.081  -0.029  -0.013  -0.011  -0.006   0.012   0.014   0.015
  0.024   0.032   0.051   0.054   0.062   0.072   0.074   0.082
  0.088   0.104   0.114   0.119   0.122   0.127   0.127   0.132
  0.136   0.139   0.144   0.147   0.152   0.163   0.167   0.201
  0.211   0.212   0.221   0.232   0.239   0.245   0.261   0.270
  0.276   0.285   0.296   0.308   0.313   0.318   0.335   0.346
  0.353   0.372   0.383   0.411   0.431   0.444   0.462   0.467
  0.483   0.503   0.514   0.534   0.553   0.564   0.571   0.573
  0.580   0.587   0.592   0.599   0.609   0.612   0.619   0.637
  0.641   0.651   0.660   0.665   0.672   0.691   0.700   0.711
  0.738   0.778   0.795   0.817   0.840   0.847   0.879   0.904
  0.951   0.959   0.976   0.983   1.000   1.014   1.032   1.042
  1.059   1.072   1.088   1.107   1.131   1.145   1.173   1.180
  1.189   1.215   1.216   1.238   1.254   1.261   1.272   1.298
  1.313   1.316   1.320   1.330   1.338   1.343   1.371   1.384
  1.396   1.402   1.413   1.417   1.433   1.443   1.463   1.469
  1.490   1.496   1.505   1.538   1.547   1.563   1.587   1.602
  1.607   1.651   1.655   1.690   1.700   1.746   1.764   1.823
  1.866   2.010   2.120   2.188   2.320   2.392   2.411   2.470
  2.498   2.529   2.544   2.573   2.635   2.653   2.667   2.697
  2.742   2.756   2.784   2.788   2.821   2.845   2.861   2.880
  2.906   2.929   2.947   2.961   2.976   3.009   3.033   3.058
  3.072   3.113   3.151   3.162   3.174   3.199   3.222   3.262
  3.283   3.302   3.314   3.331   3.342   3.363   3.391   3.396
  3.419   3.438   3.447   3.490   3.495   3.533   3.539   3.570
  3.604   3.609   3.620   3.635   3.650   3.688   3.712   3.719
  3.723   3.747   3.770   3.779   3.797   3.823   3.853   3.872
  3.914   3.932   3.938   3.941   3.950   3.961   3.973   4.012
  4.022   4.049   4.075   4.107   4.120   4.139   4.169   4.182
  4.200   4.215   4.218   4.238   4.256   4.300   4.325   4.339
  4.373   4.390   4.405   4.444   4.460   4.485   4.494   4.526
  4.545   4.561   4.582   4.623   4.643   4.668   4.684   4.720
  4.815   4.940   5.099   5.160   5.171   5.231   5.300   5.335
  5.371   5.380   5.392   5.447   5.500   5.513   5.568   5.609
  5.627   5.651   5.661   5.815   5.847   6.102   6.523   7.016
  7.221   7.299   7.399   7.687  24.064  24.133  24.148  24.243
 24.264  49.831
 --------------------------------------------------------------
 
          Ground-State Mulliken Net Atomic Charges

     Atom                 Charge (a.u.)    Spin (a.u.)
  --------------------------------------------------------
      1 O                    -0.233534       0.476439
      2 H                     0.333176      -0.039343
      3 C                    -0.819288       0.536853
      4 H                     0.222160      -0.021929
      5 H                     0.241644      -0.010699
      6 C                    -0.541670      -0.019073
      7 H                     0.220519       0.002694
      8 H                     0.230431       0.042415
      9 C                     0.178466      -0.054779
     10 H                     0.278129       0.048695
     11 C                    -0.766857       0.006305
     12 H                     0.199803       0.000794
     13 H                     0.195747      -0.001443
[...]
 H          0.193 -0.001 -0.114   -0.124  0.217  0.012   -0.072  0.342 -0.069
 H          0.041  0.373  0.022   -0.066 -0.222 -0.009    0.003 -0.143 -0.081
 C          0.104 -0.013 -0.075    0.018  0.100 -0.029    0.025  0.040  0.132
 H          0.346 -0.059  0.137    0.004  0.521 -0.015    0.174 -0.009  0.260
 C         -0.055  0.006  0.025    0.017 -0.056  0.001    0.031  0.000 -0.090
 H         -0.019 -0.039 -0.223    0.083  0.124  0.089   -0.038 -0.060  0.079
 H          0.117 -0.029 -0.080   -0.112 -0.051 -0.188   -0.069  0.030  0.090
 H          0.168  0.052  0.185   -0.047  0.085 -0.025   -0.169 -0.152 -0.254
 C         -0.063 -0.020  0.118    0.002 -0.059 -0.052   -0.049 -0.043 -0.046
 H         -0.179  0.010  0.121    0.066 -0.036  0.104   -0.126  0.032  0.213
 H         -0.320  0.099  0.175    0.197  0.062 -0.196    0.078  0.089 -0.157
 TransDip   0.000  0.000  0.000    0.000  0.000  0.000    0.000  0.000  0.000

 Mode:                22                     23                     24
 Frequency:      1187.07                1210.80                1227.02
 Force Cnst:      1.0463                 1.1057                 1.0893
 Red. Mass:       1.2602                 1.2801                 1.2280
 IR Active:          YES                    YES                    YES
 IR Intens:        0.000                  0.000                  0.000
 Raman Active:       YES                    YES                    YES
               X      Y      Z        X      Y      Z        X      Y      Z
 O          0.027 -0.043  0.015    0.018 -0.010  0.001   -0.022 -0.041 -0.014
 H          0.007 -0.063 -0.370    0.130  0.178  0.450    0.045 -0.010 -0.111
 C          0.047  0.007 -0.008   -0.033 -0.043  0.032    0.050  0.018 -0.010
 H         -0.373 -0.085  0.166    0.428  0.158 -0.225   -0.121  0.035  0.024
 H         -0.035  0.001  0.049   -0.116 -0.193  0.000   -0.117 -0.068  0.061
 C         -0.043  0.038  0.031   -0.046  0.004  0.034    0.029  0.066  0.040
 H         -0.020 -0.107  0.112   -0.023 -0.134  0.115    0.070  0.395 -0.186
 H          0.298  0.487 -0.319    0.196  0.328 -0.201   -0.117 -0.226  0.083
 C         -0.064  0.044  0.036   -0.024  0.062 -0.073   -0.018 -0.007 -0.051
 H          0.078 -0.223  0.139   -0.169  0.035 -0.199   -0.189 -0.435 -0.223
 C          0.036 -0.013 -0.018   -0.008 -0.038  0.044   -0.034  0.004  0.048
 H          0.025  0.031  0.117    0.065  0.107  0.020    0.003  0.020 -0.087
 H         -0.093  0.007 -0.002   -0.044 -0.045 -0.122    0.062 -0.020 -0.046
 H         -0.101 -0.024 -0.117    0.058  0.156  0.124    0.109  0.073  0.161
 C          0.024 -0.029 -0.045    0.046 -0.024 -0.032    0.014 -0.002  0.020
 H         -0.240  0.061  0.111   -0.160  0.040  0.048   -0.310  0.082  0.086
 H          0.030  0.049 -0.086    0.116 -0.001 -0.077    0.437 -0.128 -0.105
 TransDip   0.000  0.000  0.000    0.000  0.000  0.000    0.000  0.000  0.000

 Mode:                25                     26                     27
 Frequency:      1280.20                1332.80                1338.79
 Force Cnst:      1.6660                 1.7215                 1.4362
 Red. Mass:       1.7254                 1.6449                 1.3601
 IR Active:          YES                    YES                    YES
 IR Intens:        0.000                  0.000                  0.000
 Raman Active:       YES                    YES                    YES
               X      Y      Z        X      Y      Z        X      Y      Z
 O         -0.012  0.022 -0.005    0.006  0.010  0.005    0.005 -0.008 -0.009
 H          0.037 -0.027  0.072   -0.018 -0.041 -0.002   -0.004  0.017  0.025
 C          0.031 -0.036  0.002   -0.017 -0.018 -0.023   -0.003  0.007  0.020
 H          0.006  0.012 -0.028    0.000 -0.235  0.105    0.062  0.109 -0.065
 H         -0.155 -0.172  0.061    0.053 -0.030 -0.079    0.000 -0.017 -0.003
 C          0.001 -0.012 -0.041    0.023 -0.029  0.000   -0.023 -0.043  0.050
 H          0.070  0.030 -0.090   -0.100 -0.096  0.084    0.242  0.225 -0.226
 H         -0.199 -0.216  0.248    0.147  0.121 -0.153    0.183  0.138 -0.263
 C         -0.106  0.172 -0.082    0.112  0.122  0.049   -0.049 -0.057 -0.079
 H          0.394 -0.430  0.309   -0.130 -0.486 -0.190    0.389  0.126  0.302
 C          0.045 -0.054  0.006   -0.042 -0.026  0.015    0.012  0.006 -0.034
 H          0.104  0.141  0.129    0.019  0.024 -0.175    0.004  0.071  0.194
 H         -0.159 -0.020 -0.056    0.028 -0.055 -0.167    0.053  0.033  0.210
 H         -0.102  0.155 -0.062   -0.011  0.029  0.037    0.098  0.035  0.044
 C          0.048 -0.049  0.054   -0.148  0.015  0.021   -0.086  0.054  0.055
 H          0.220 -0.092  0.049    0.558 -0.163 -0.129    0.259 -0.066 -0.160
 H         -0.266  0.027  0.164    0.227 -0.007 -0.133    0.419 -0.160 -0.068
 TransDip   0.000  0.000  0.000    0.000  0.000  0.000    0.000  0.000  0.000

 Mode:                28                     29                     30
 Frequency:      1358.63                1395.39                1435.31
 Force Cnst:      1.3609                 1.5160                 1.3876
 Red. Mass:       1.2513                 1.3215                 1.1432
 IR Active:          YES                    YES                    YES
 IR Intens:        0.000                  0.000                  0.000
 Raman Active:       YES                    YES                    YES
               X      Y      Z        X      Y      Z        X      Y      Z
 O          0.003 -0.017 -0.017   -0.001 -0.001  0.002   -0.001  0.003 -0.001
 H         -0.016  0.043 -0.030    0.001  0.015 -0.044    0.009 -0.058  0.009
 C         -0.018 -0.010  0.002   -0.002 -0.017 -0.008    0.002 -0.100  0.000
 H          0.010 -0.072  0.034   -0.073  0.007 -0.001   -0.266  0.498 -0.304
 H          0.052  0.003 -0.045    0.033  0.091  0.040    0.103  0.519  0.377
 C         -0.076 -0.057  0.060   -0.005  0.007 -0.001    0.000 -0.010  0.002
 H          0.484  0.433 -0.462    0.026 -0.032  0.010   -0.016  0.037 -0.021
 H          0.084  0.085 -0.173   -0.026 -0.047 -0.010    0.015  0.037  0.015
 C          0.039  0.035  0.042    0.035  0.033  0.044    0.019  0.023 -0.002
 H         -0.163 -0.003 -0.135   -0.121 -0.050 -0.090   -0.010 -0.015 -0.031
 C         -0.007 -0.003  0.012   -0.072 -0.066 -0.115   -0.004 -0.007  0.017
 H         -0.007 -0.037 -0.091    0.046  0.359  0.383    0.057  0.061 -0.116
 H         -0.018 -0.018 -0.119    0.232 -0.029  0.493    0.054 -0.020 -0.036
 H         -0.054 -0.037 -0.032    0.380  0.290  0.288   -0.098  0.016 -0.051
 C          0.054  0.018 -0.017    0.015 -0.007 -0.024   -0.004 -0.014  0.026
 H          0.091  0.013 -0.021    0.010  0.015  0.094   -0.024 -0.052 -0.218
 H         -0.410  0.060  0.171   -0.155 -0.005  0.055    0.018  0.214 -0.105
 TransDip   0.000  0.000  0.000    0.000  0.000  0.000    0.000  0.000  0.000

 Mode:                31                     32                     33
 Frequency:      1457.09                1473.32                1478.43
 Force Cnst:      1.3639                 1.3442                 1.3886
 Red. Mass:       1.0904                 1.0511                 1.0783
 IR Active:          YES                    YES                    YES
 IR Intens:        0.000                  0.000                  0.000
 Raman Active:       YES                    YES                    YES
               X      Y      Z        X      Y      Z        X      Y      Z
 O         -0.001  0.004 -0.002    0.001 -0.005  0.000    0.003  0.001 -0.004
 H         -0.005  0.002  0.010    0.006  0.029 -0.038   -0.038 -0.133  0.069
 C          0.001  0.022 -0.004   -0.006 -0.007  0.003    0.005  0.037 -0.007
 H          0.056 -0.124  0.076   -0.017  0.030 -0.019    0.066 -0.136  0.088
 H         -0.025 -0.115 -0.082    0.033  0.046  0.009   -0.052 -0.134 -0.087
 C         -0.005  0.008  0.008    0.010 -0.021 -0.007    0.012 -0.041 -0.008
 H          0.121 -0.064  0.001   -0.158  0.149 -0.043   -0.255  0.254 -0.084
 H         -0.021 -0.118 -0.078    0.029  0.159  0.132    0.046  0.270  0.239
 C          0.002  0.007  0.010    0.025 -0.011 -0.001   -0.013 -0.027  0.011
 H         -0.022 -0.029 -0.009   -0.025  0.002 -0.046    0.008  0.052  0.038
 C          0.009  0.004 -0.026    0.041 -0.021 -0.010   -0.016 -0.030  0.011
 H         -0.123 -0.187  0.155   -0.091 -0.335 -0.205    0.229  0.354 -0.282
 H         -0.218  0.038  0.034   -0.537  0.110  0.332    0.305 -0.043  0.206
 H          0.169  0.047  0.109   -0.034  0.546  0.049   -0.283  0.165 -0.163
 C          0.016 -0.040  0.064   -0.008  0.011 -0.010    0.015 -0.011  0.022
 H         -0.204 -0.102 -0.555    0.041  0.017  0.080   -0.107 -0.031 -0.216
 H          0.018  0.563 -0.248    0.002 -0.092  0.038    0.001  0.208 -0.086
 TransDip   0.000  0.000  0.000    0.000  0.000  0.000    0.000  0.000  0.000

 Mode:                34                     35                     36
 Frequency:      1498.86                1518.85                2945.03
 Force Cnst:      1.4090                 1.4691                 5.5258
 Red. Mass:       1.0645                 1.0809                 1.0814
 IR Active:          YES                    YES                    YES
 IR Intens:        0.000                  0.000                  0.000
 Raman Active:       YES                    YES                    YES
               X      Y      Z        X      Y      Z        X      Y      Z
 O         -0.003 -0.002  0.003   -0.005 -0.022  0.006    0.000  0.000  0.000
 H          0.052  0.189 -0.085    0.258  0.817 -0.387   -0.009  0.003  0.003
 C         -0.006  0.002  0.004   -0.038 -0.031  0.028    0.001  0.003  0.001
 H          0.018 -0.022  0.014    0.075  0.004 -0.026   -0.011 -0.017 -0.033
 H          0.027 -0.010 -0.038    0.135  0.011 -0.100    0.012 -0.007  0.011
 C         -0.016  0.054  0.015    0.035 -0.023 -0.016    0.004 -0.007 -0.002
 H          0.391 -0.336  0.096   -0.147  0.101 -0.025    0.028  0.045  0.070
 H         -0.058 -0.374 -0.325    0.008  0.049  0.137   -0.082  0.037 -0.036
 C         -0.001 -0.021  0.008   -0.020  0.006  0.008    0.051  0.003 -0.062
 H          0.002  0.006  0.013    0.004 -0.023  0.032   -0.628 -0.045  0.740
 C          0.007 -0.027  0.018   -0.001  0.003 -0.001   -0.006 -0.001  0.005
 H          0.155  0.149 -0.343    0.010  0.038  0.038    0.029 -0.019  0.006
 H          0.047  0.001  0.219    0.058 -0.011 -0.040    0.000  0.020 -0.004
 H         -0.305  0.298 -0.158    0.002 -0.072 -0.011    0.049  0.013 -0.065
 C         -0.008  0.002  0.004   -0.003 -0.003  0.011    0.003 -0.003  0.008
 H         -0.026  0.006 -0.001    0.006 -0.024 -0.062    0.022  0.086 -0.014
 H          0.040 -0.001 -0.016   -0.002  0.048 -0.017   -0.042 -0.051 -0.093
 TransDip   0.000  0.000  0.000    0.000  0.000  0.000    0.000  0.000  0.000

 Mode:                37                     38                     39
 Frequency:      2951.95                2976.41                2980.34
 Force Cnst:      5.4179                 5.4931                 5.5405
 Red. Mass:       1.0553                 1.0524                 1.0587
 IR Active:          YES                    YES                    YES
 IR Intens:        0.000                  0.000                  0.000
 Raman Active:       YES                    YES                    YES
               X      Y      Z        X      Y      Z        X      Y      Z
 O          0.000  0.004 -0.001    0.000  0.000  0.000    0.000  0.000  0.000
 H          0.005 -0.006 -0.002   -0.005  0.002  0.002   -0.003  0.002  0.002
 C          0.000  0.000  0.000    0.000  0.000  0.000    0.000  0.001  0.000
 H         -0.002 -0.001 -0.002   -0.002 -0.002 -0.003   -0.005 -0.007 -0.016
 H          0.002 -0.002  0.004   -0.002  0.001 -0.001    0.009 -0.005  0.011
 C         -0.040  0.046  0.021    0.025  0.005  0.028    0.023  0.010  0.032
 H         -0.201 -0.310 -0.496   -0.088 -0.161 -0.248   -0.116 -0.203 -0.317
 H          0.653 -0.286  0.269   -0.220  0.103 -0.082   -0.173  0.083 -0.063
 C          0.007  0.000 -0.007    0.005  0.001 -0.005    0.005  0.000 -0.006
 H         -0.076 -0.005  0.086   -0.059 -0.004  0.066   -0.059 -0.002  0.068
 C          0.000 -0.001 -0.003   -0.010 -0.016 -0.034    0.010  0.013  0.028
 H          0.024 -0.012  0.003    0.351 -0.176  0.062   -0.292  0.145 -0.055
 H          0.003  0.026 -0.003    0.063  0.441 -0.059   -0.053 -0.362  0.047
 H         -0.025 -0.006  0.036   -0.295 -0.074  0.394    0.235  0.059 -0.313
 C         -0.001 -0.008  0.004   -0.006  0.008 -0.031   -0.009  0.010 -0.041
 H          0.021  0.113 -0.017   -0.059 -0.255  0.045   -0.076 -0.338  0.060
 H         -0.015 -0.022 -0.036    0.144  0.164  0.318    0.195  0.216  0.424
 TransDip   0.000  0.000  0.000    0.000  0.000  0.000    0.000  0.000  0.000

 Mode:                40                     41                     42
 Frequency:      2990.94                3031.74                3041.26
 Force Cnst:      5.7389                 5.9855                 5.7480
 Red. Mass:       1.0888                 1.1053                 1.0548
 IR Active:          YES                    YES                    YES
 IR Intens:        0.000                  0.000                  0.000
 Raman Active:       YES                    YES                    YES
               X      Y      Z        X      Y      Z        X      Y      Z
 O          0.000  0.000  0.000    0.000  0.000  0.000    0.000  0.000  0.000
 H         -0.002  0.005  0.002    0.000  0.002 -0.003    0.006 -0.011 -0.001
 C          0.000 -0.001 -0.001    0.001 -0.001  0.000    0.019 -0.061 -0.008
 H          0.005  0.009  0.017    0.003  0.009  0.011    0.167  0.361  0.569
 H         -0.009  0.006 -0.010   -0.012  0.012 -0.015   -0.400  0.349 -0.471
 C          0.052  0.007  0.051   -0.008 -0.006 -0.014    0.000  0.000  0.000
 H         -0.161 -0.288 -0.448    0.048  0.086  0.138   -0.002 -0.002 -0.004
 H         -0.456  0.207 -0.167    0.053 -0.024  0.018    0.004 -0.001  0.001
 C         -0.006  0.000  0.005   -0.001 -0.001 -0.001    0.003  0.002 -0.003
 H          0.056  0.002 -0.062   -0.001  0.000  0.003   -0.021 -0.003  0.026
 C          0.005  0.002 -0.001   -0.002  0.003  0.000   -0.007  0.002  0.004
 H         -0.049  0.026 -0.011    0.031 -0.013  0.006    0.051 -0.027  0.010
 H         -0.007 -0.053  0.008   -0.001 -0.018  0.004   -0.004 -0.005  0.000
 H         -0.007 -0.001  0.010   -0.002  0.000  0.002    0.036  0.009 -0.051
 C          0.003 -0.028  0.034   -0.033 -0.080 -0.033    0.000  0.003  0.000
 H          0.106  0.488 -0.090    0.149  0.694 -0.145   -0.006 -0.033  0.007
 H         -0.135 -0.157 -0.300    0.244  0.263  0.550    0.000 -0.001 -0.002
 TransDip   0.000  0.000  0.000    0.000  0.000  0.000    0.000  0.000  0.000

 Mode:                43                     44                     45
 Frequency:      3047.92                3055.14                3122.76
 Force Cnst:      6.0274                 6.0612                 6.3842
 Red. Mass:       1.1012                 1.1022                 1.1112
 IR Active:          YES                    YES                    YES
 IR Intens:        0.000                  0.000                  0.000
 Raman Active:       YES                    YES                    YES
               X      Y      Z        X      Y      Z        X      Y      Z
 O          0.000  0.000  0.000    0.000  0.000  0.000    0.000  0.000  0.000
 H         -0.002 -0.002 -0.001    0.001  0.001  0.000   -0.004 -0.001 -0.014
 C          0.002 -0.004  0.001   -0.001  0.003  0.001   -0.046 -0.002 -0.085
 H          0.009  0.019  0.031   -0.009 -0.023 -0.035    0.156  0.382  0.580
 H         -0.032  0.028 -0.039    0.018 -0.019  0.022    0.397 -0.354  0.447
 C         -0.002 -0.002 -0.004    0.001  0.000  0.001    0.000  0.000  0.000
 H          0.017  0.027  0.043   -0.003 -0.007 -0.012    0.000  0.002  0.003
 H          0.016 -0.006  0.006   -0.008  0.003 -0.003   -0.002  0.000 -0.001
 C          0.006  0.001 -0.007   -0.002  0.001  0.001    0.000  0.000 -0.002
 H         -0.057 -0.003  0.071    0.014  0.000 -0.016   -0.011 -0.002  0.013
 C          0.068  0.037 -0.048   -0.050  0.077 -0.014    0.001  0.001  0.000
 H         -0.319  0.172 -0.078    0.682 -0.323  0.133    0.003  0.001  0.001
 H         -0.061 -0.505  0.051   -0.103 -0.617  0.074   -0.001 -0.010  0.002
 H         -0.440 -0.104  0.610    0.014  0.024 -0.039   -0.005  0.001  0.008
 C          0.000  0.001 -0.001    0.001  0.003  0.001    0.000  0.000  0.000
 H         -0.002 -0.020  0.005   -0.003 -0.023  0.006    0.000  0.001  0.001
 H          0.002  0.002  0.006   -0.009 -0.010 -0.019    0.004  0.001  0.006
 TransDip   0.000  0.000  0.000    0.000  0.000  0.000    0.000  0.000  0.000

 STANDARD THERMODYNAMIC QUANTITIES AT   298.15 K  AND     1.00 ATM

   This Molecule has  1 Imaginary Frequencies
   Zero point vibrational energy:       91.067 kcal/mol

   Atom    1 Element O  Has Mass   15.99491
   Atom    2 Element H  Has Mass    1.00783
   Atom    3 Element C  Has Mass   12.00000
   Atom    4 Element H  Has Mass    1.00783
   Atom    5 Element H  Has Mass    1.00783
   Atom    6 Element C  Has Mass   12.00000
   Atom    7 Element H  Has Mass    1.00783
   Atom    8 Element H  Has Mass    1.00783
   Atom    9 Element C  Has Mass   12.00000
   Atom   10 Element H  Has Mass    1.00783
   Atom   11 Element C  Has Mass   12.00000
   Atom   12 Element H  Has Mass    1.00783
   Atom   13 Element H  Has Mass    1.00783
   Atom   14 Element H  Has Mass    1.00783
   Atom   15 Element C  Has Mass   12.00000
   Atom   16 Element H  Has Mass    1.00783
   Atom   17 Element H  Has Mass    1.00783
   Molecular Mass:    87.081040 amu
   Principal axes and moments of inertia in atomic units:
                             1           2           3
    Eigenvalues --      381.87420   618.96572   722.11885
          X               0.99851    -0.04059     0.03650
          Y               0.03892     0.99822     0.04514
          Z              -0.03827    -0.04365     0.99831
   Rotational Symmetry Number is   1
   The Molecule is an Asymmetric Top
   Translational Enthalpy:        0.889 kcal/mol
   Rotational Enthalpy:           0.889 kcal/mol
   Vibrational Enthalpy:         93.482 kcal/mol
   gas constant (RT):             0.592 kcal/mol
   Translational Entropy:        39.306  cal/mol.K
   Rotational Entropy:           26.637  cal/mol.K
   Vibrational Entropy:          13.270  cal/mol.K

   Total Enthalpy:               95.852 kcal/mol
   Total Entropy:                79.212  cal/mol.K
Archival summary:
1\1\node20\FREQ\ProcedureUnspecified\BasisUnspecified\1511(2)\edames\MonApr2118:26:302014MonApr2118:26:302014\0\\#,FREQ,ProcedureUnspecified,BasisUnspecified,\\0,2\O\H,1,1.2507\C,2,1.28547,1,153.541\H,3,1.09406,2,102.585,1,-94.6014,0\H,3,1.09421,2,106.316,1,146.561,0\C,1,1.39883,2,105.721,3,-18.9824,0\H,6,1.10324,1,107.223,2,147.65,0\H,6,1.10393,1,111.242,2,-94.5967,0\C,3,1.5142,2,100.555,1,24.858,0\H,9,1.10377,3,109.311,2,-155.489,0\C,9,1.53274,3,110.865,2,84.2719,0\H,11,1.09712,9,110.726,3,66.9648,0\H,11,1.09782,9,111.437,3,-172.435,0\H,11,1.09895,9,110.543,3,-52.0824,0\C,6,1.53874,1,111.69,2,28.6989,0\H,15,1.09887,6,109.676,1,-176.763,0\H,15,1.09978,6,108.862,1,65.1376,0\\\@

 Total job time:  71348.24s(wall), 69222.13s(cpu) 
 Mon Apr 21 18:26:30 2014

        *************************************************************
        *                                                           *
        *  Thank you very much for using Q-Chem.  Have a nice day.  *
        *                                                           *
        *************************************************************


0 sent ACK to 0 
now end server 0 ... 
cleanup process ... done
remove work dirs /tmp/qchem30509.0 -- /tmp/qchem30509.3
rm -rf /tmp/qchem30509.0
rm -rf /tmp/qchem30509.1
rm -rf /tmp/qchem30509.2
rm -rf /tmp/qchem30509.3
rm -rf /tmp/qchem30509
