
Running Job 1 of 2 ts23.in
qchem ts23.in_16572.0 /tmp/qchem16572/ 4
/opt/qchem/bin/mpi/mpirun_qchem -machinefile /tmp/296595.1.normal1/hostfile -np 4 /opt/qchem/exe/qcprog.exe ts23.in_16572.0 /tmp/qchem16572/

Process 2 of 4 is on node13.cluster - thread support 0
Process 0 of 4 is on node13.cluster - thread support 0
Process 3 of 4 is on node13.cluster - thread support 0
Process 1 of 4 is on node13.cluster - thread support 0
initial socket setup ...start
initial socket setup ...done 
now start server 0 ... 
                  Welcome to Q-Chem
     A Quantum Leap Into The Future Of Chemistry

 Y. Shao, L. Fusti-Molnar, Y. Jung, J. Kussmann, C. Ochsenfeld, S. T. Brown, 
 A. T. B. Gilbert, L. V. Slipchenko, S. V. Levchenko, D. P. O'Neill, 
 R. A. DiStasio Jr., R. C. Lochan, T. Wang, G. J. O. Beran, N. A. Besley, 
 J. M. Herbert, C. Y. Lin, T. Van Voorhis, S. H. Chien, A. Sodt, R. P. Steele, 
 V. A. Rassolov, P. E. Maslen, P. P. Korambath, R. D. Adamson, B. Austin, 
 J. Baker, E. F. C. Byrd, H. Dachsel, R. J. Doerksen, A. Dreuw, B. D. Dunietz, 
 A. D. Dutoi, T. R. Furlani, S. R. Gwaltney, A. Heyden, S. Hirata, C.-P. Hsu, 
 G. Kedziora, R. Z. Khaliullin, P. Klunzinger, A. M. Lee, M. S. Lee, W. Liang, 
 I. Lotan, N. Nair, B. Peters, E. I. Proynov, P. A. Pieniazek, Y. M. Rhee, 
 J. Ritchie, E. Rosta, C. D. Sherrill, A. C. Simmonett, J. E. Subotnik, 
 H. L. Woodcock III, W. Zhang, A. T. Bell, A. K. Chakraborty, D. M. Chipman, 
 F. J. Keil, A. Warshel, W. J. Hehre, H. F. Schaefer III, J. Kong, 
 A. I. Krylov, P. M. W. Gill, M. Head-Gordon

 Additional authors for Version 3.1: 
 Z. Gan, Y. Zhao, N. E. SchultzD. Truhlar, E. Epifanovsky, M. Oana

 Additional authors for Version 3.2: 
 R. Baer, B. R. Brooks, D. Casanova, J.-D. Chai, C.-L. Cheng, C. Cramer, 
 D. Crittenden, A. Ghysels, G. Hawkins, E. G. Hohenstein, C. Kelley, 
 W. Kurlancheek, D. Liotard, E. Livshits, P. Manohar, A. Marenich, 
 D. Neuhauser, R. Olson, M. A. Rohrdanz, K. S. Thanthiriwatte, A. J. W. Thom, 
 V. Vanovschi, C. F. Williams, Q. Wu, Z.-Q. You

 Additional authors for Version 4.0: 
 A. Aspuru-Guzik, Y. Bernard, C. Chang, J. Deng, A. Dreuw, M. Diedenhofen, 
 R. G. Edgar, D. Ghosh, W. A. Goddard III, M. Goldey, L. D. Jacobson, 
 M. Gordon, B. Kaduk, I. Kaliman, K. Khistyaev, R. King, A. Klamt, 
 D. Kosenkov, T. Kus, D. Lambrecht, A. Landau, A. W. Lange, K. Lawler, F. Liu, 
 J. Liu, R. Olivares-Amaya, S. P. Mao, J. Parkhill, N. Russ, M. Schmidt, 
 N. Shenvi, D. Small, Y. C. Su, E. Sundstrom, L. Vogt, O. Vydrov, M. Watson, 
 M. Wormit, X. Xu, S. Yeganeh, I. Y. Zhang, D. Zuev

 Additional authors for Version 4.1: 
 X. Feng, M. W. D. Hanson-Heine, P. Horn, H. Ji, A. Laurent, R. Peverati, 
 N. Mardirossian, N. Sergueev, S. Sharada, P. Zimmerman


 Q-Chem, Version 4.1, Q-Chem, Inc., Pittsburgh, PA (2013).

 Intel X86 Linux Version 4.1.0.1 

 Q-chem begins on Sun Apr 20 10:52:51 2014  

Host: 
0

     Scratch files written to /tmp/qchem16572.0//
 Oct1213 14483_epif 4150   
 Parallel job on  4  processors
Processing $rem in /opt/qchem/config/preferences.
 MEM_TOTAL  2000 
Warning: disabling incdft.
 Q-Chem warning in module /home/scratch/svnadmin/14483_epif/qchem/forms1/BasisType.C, line 1125:

 Setting pure/cartesian flag to 2111 for general basis


Finally everything over in PARseQInput

--------------------------------------------------------------
User input:
--------------------------------------------------------------
$rem
XC_GRID 000075000434
JOBTYPE ts
EXCHANGE M08SO
BASIS gen
GUI=2
UNRESTRICTED TRUE
CORRELATION NONE
$end

$comment
c5h11o-2
$end

$molecule
0 2
C
H  1 1.094731
C  1 1.503455 2 108.127248
H  3 1.084736 1 119.711435 2 158.729841 0
H  3 1.315070 1 121.268440 2 22.581460 0
C  5 1.301532 3 68.687356 1 -108.356255 0
H  6 1.082531 5 109.799860 3 111.323851 0
O  6 1.372940 5 122.198845 3 -108.137252 0
H  8 0.964187 6 108.958526 5 93.379900 0
C  1 1.525708 2 108.372825 3 120.762737 0
H  10 1.089144 1 111.118857 2 -59.513740 0
H  10 1.089819 1 111.034624 2 61.566915 0
H  10 1.091715 1 110.104458 2 -179.091647 0
C  1 1.534426 2 107.616983 3 -119.270670 0
H  14 1.089965 1 110.878915 2 62.659004 0
H  14 1.090881 1 111.083056 2 -57.964326 0
H  14 1.091590 1 110.080129 2 -177.620090 0
$end

$basis
H  0
S  3 1.00
3.386500000000E+01 2.549380000000E-02
5.094790000000E+00 1.903730000000E-01
1.158790000000E+00 8.521610000000E-01
S  1 1.00
3.258400000000E-01 1.000000000000E+00
S  1 1.00
1.027410000000E-01 1.000000000000E+00
S  1 1.00
3.600000000000E-02 1.000000000000E+00
P  1 1.00
1.500000000000E+00 1.000000000000E+00
P  1 1.00
3.750000000000E-01 1.000000000000E+00
****
C 0
S  6 1.00
4.563240000000E+03 1.966650000000E-03
6.820240000000E+02 1.523060000000E-02
1.549730000000E+02 7.612690000000E-02
4.445530000000E+01 2.608010000000E-01
1.302900000000E+01 6.164620000000E-01
1.827730000000E+00 2.210060000000E-01
S  3 1.00
2.096420000000E+01 1.146600000000E-01
4.803310000000E+00 9.199990000000E-01
1.459330000000E+00 -3.030680000000E-03
S  1 1.00
4.834560000000E-01 1.000000000000E+00
S  1 1.00
1.455850000000E-01 1.000000000000E+00
S  1 1.00
4.380000000000E-02 1.000000000000E+00
P  3 1.00
2.096420000000E+01 4.024870000000E-02
4.803310000000E+00 2.375940000000E-01
1.459330000000E+00 8.158540000000E-01
P  1 1.00
4.834560000000E-01 1.000000000000E+00
P  1 1.00
1.455850000000E-01 1.000000000000E+00
P  1 1.00
4.380000000000E-02 1.000000000000E+00
D  1 1.00
1.252000000000E+00 1.000000000000E+00
D  1 1.00
3.130000000000E-01 1.000000000000E+00
F  1 1.00
8.000000000000E-01 1.000000000000E+00
****
O  0
S  6 1.00
8.588500000000E+03 1.895150000000E-03
1.297230000000E+03 1.438590000000E-02
2.992960000000E+02 7.073200000000E-02
8.737710000000E+01 2.400010000000E-01
2.567890000000E+01 5.947970000000E-01
3.740040000000E+00 2.808020000000E-01
S  3 1.00
4.211750000000E+01 1.138890000000E-01
9.628370000000E+00 9.208110000000E-01
2.853320000000E+00 -3.274470000000E-03
S  1 1.00
9.056610000000E-01 1.000000000000E+00
S  1 1.00
2.556110000000E-01 1.000000000000E+00
S  1 1.00
8.450000000000E-02 1.000000000000E+00
P  3 1.00
4.211750000000E+01 3.651140000000E-02
9.628370000000E+00 2.371530000000E-01
2.853320000000E+00 8.197020000000E-01
P  1 1.00
9.056610000000E-01 1.000000000000E+00
P  1 1.00
2.556110000000E-01 1.000000000000E+00
P  1 1.00
8.450000000000E-02 1.000000000000E+00
D  1 1.00
2.584000000000E+00 1.000000000000E+00
D  1 1.00
6.460000000000E-01 1.000000000000E+00
F  1 1.00
1.400000000000E+00 1.000000000000E+00
****
$end

--------------------------------------------------------------
 ----------------------------------------------------
       Standard Nuclear Orientation (Angstroms)
    I     Atom         X            Y            Z
 ----------------------------------------------------
    1      C      -1.011317     0.012004    -0.333783
    2      H      -1.004075     0.028445    -1.428366
    3      C       0.302456     0.559181     0.150958
    4      H       0.382381     0.951344     1.159161
    5      H       1.035585     1.345454    -0.606476
    6      C       1.574758     0.166926    -0.486686
    7      H       1.533048    -0.353509    -1.434990
    8      O       2.705551    -0.047599     0.261813
    9      H       2.446411    -0.310189     1.152627
   10      C      -2.179805     0.864172     0.152253
   11      H      -2.088237     1.891648    -0.197237
   12      H      -3.130094     0.460388    -0.196480
   13      H      -2.203959     0.880468     1.243579
   14      C      -1.178426    -1.448024     0.107642
   15      H      -0.334761    -2.053148    -0.224139
   16      H      -2.093478    -1.879180    -0.300775
   17      H      -1.233230    -1.506488     1.196287
 ----------------------------------------------------
 Molecular Point Group                 C1    NOp =  1
 Largest Abelian Subgroup              C1    NOp =  1
 Nuclear Repulsion Energy =   245.0235208668 hartrees
 There are       25 alpha and       24 beta electrons
 Requested basis set is non-standard
 There are 138 shells and 314 basis functions

Total QAlloc Memory Limit   2000 MB
Mega-Array Size        61 MB
MEM_STATIC part        62 MB
 A cutoff of  1.0D-11 yielded   8954 shell pairs
 There are     45824 function pairs (     54942 Cartesian)
 Smallest overlap matrix eigenvalue = 1.43E-05

  Scale SEOQF with 1.000000e-01/1.000000e-01/1.000000e-01

 Standard Electronic Orientation quadrupole field applied
 Nucleus-field energy     =     0.0000000066 hartrees
 Guess MOs from core Hamiltonian diagonalization
 An unrestricted hybrid HF-DFT SCF calculation will be
 performed using Pulay DIIS extrapolation
 Exchange:     0.5679 Hartree-Fock + 1.0000 M08SO
 SCF converges when DIIS error is below 1.0E-08
 ---------------------------------------
  Cycle       Energy         DIIS Error
 ---------------------------------------
    1    -191.4618900237      9.16E-02
    2    -166.7673020802      5.00E-02
    3    -166.5658602324      6.63E-02
    4    -243.7290263846      3.62E-02
    5    -268.9944666970      1.58E-02
    6    -271.2158728210      8.81E-03
    7    -271.9142763361      4.65E-03
    8    -272.1276960634      7.15E-04
    9    -272.1363709508      3.34E-04
   10    -272.1389769658      9.69E-05
   11    -272.1395817780      4.25E-05
   12    -272.1396801134      1.35E-05
   13    -272.1397085587      7.95E-06
   14    -272.1397166742      3.02E-06
   15    -272.1397180767      9.95E-07
   16    -272.1397181813      3.80E-07
   17    -272.1397182052      1.89E-07
   18    -272.1397182093      8.11E-08
   19    -272.1397182102      2.47E-08
   20    -272.1397182103      7.42E-09 Convergence criterion met
 ---------------------------------------
 <S^2> = 0.7580
 SCF time:  CPU 1221.56 s  wall 1495.35 s
 SCF   energy in the final basis set = -272.1397182103
 Total energy in the final basis set = -272.1397182103
 Analysis of SCF Wavefunction
 
 --------------------------------------------------------------
                    Orbital Energies (a.u.)
 --------------------------------------------------------------
 
 Alpha MOs
 -- Occupied --
-19.585 -10.558 -10.511 -10.510 -10.485 -10.484  -1.164  -0.931
 -0.856  -0.782  -0.716  -0.665  -0.605  -0.567  -0.535  -0.521
 -0.495  -0.483  -0.460  -0.436  -0.419  -0.411  -0.403  -0.369
 -0.191
 -- Virtual --
 -0.025  -0.014  -0.009  -0.007   0.013   0.015   0.018   0.022
  0.025   0.049   0.051   0.067   0.068   0.080   0.084   0.091
  0.096   0.109   0.117   0.122   0.129   0.130   0.135   0.137
  0.142   0.147   0.152   0.157   0.163   0.175   0.180   0.195
  0.205   0.217   0.224   0.234   0.240   0.250   0.258   0.271
  0.272   0.283   0.297   0.301   0.307   0.321   0.326   0.335
  0.360   0.387   0.406   0.425   0.437   0.464   0.479   0.485
  0.493   0.510   0.516   0.531   0.545   0.550   0.556   0.561
  0.574   0.577   0.586   0.598   0.612   0.620   0.625   0.637
  0.638   0.657   0.673   0.680   0.689   0.701   0.712   0.733
  0.754   0.772   0.783   0.826   0.833   0.861   0.887   0.906
  0.913   0.941   0.955   0.980   0.987   1.002   1.018   1.033
  1.048   1.062   1.078   1.105   1.114   1.132   1.142   1.153
  1.169   1.176   1.189   1.196   1.213   1.252   1.261   1.275
  1.287   1.293   1.308   1.324   1.329   1.344   1.355   1.360
  1.366   1.391   1.411   1.420   1.422   1.441   1.459   1.481
  1.487   1.509   1.516   1.543   1.562   1.578   1.585   1.598
  1.621   1.641   1.655   1.686   1.711   1.717   1.721   1.818
  1.976   2.078   2.182   2.241   2.325   2.389   2.447   2.481
  2.516   2.555   2.570   2.613   2.637   2.671   2.678   2.693
  2.706   2.727   2.754   2.831   2.843   2.855   2.884   2.913
  2.921   2.930   2.954   2.959   2.975   2.976   3.008   3.026
  3.058   3.074   3.102   3.132   3.148   3.170   3.194   3.197
  3.233   3.248   3.280   3.297   3.323   3.344   3.355   3.358
  3.379   3.393   3.420   3.423   3.428   3.458   3.488   3.530
  3.548   3.566   3.583   3.594   3.621   3.631   3.665   3.690
  3.733   3.744   3.756   3.763   3.775   3.796   3.824   3.875
  3.878   3.902   3.929   3.955   3.971   3.981   3.993   4.017
  4.026   4.062   4.084   4.105   4.147   4.156   4.169   4.175
  4.180   4.196   4.203   4.213   4.215   4.268   4.283   4.294
  4.349   4.370   4.400   4.452   4.468   4.484   4.515   4.525
  4.580   4.587   4.615   4.663   4.674   4.741   4.825   4.864
  4.906   4.979   5.108   5.150   5.184   5.201   5.290   5.384
  5.405   5.457   5.499   5.523   5.582   5.585   5.639   5.666
  5.680   5.684   5.808   6.069   6.555   6.940   7.141   7.153
  7.229   7.458   7.577  24.071  24.143  24.206  24.265  24.346
 49.808
 
 Beta MOs
 -- Occupied --
-19.583 -10.549 -10.510 -10.502 -10.485 -10.484  -1.157  -0.925
 -0.845  -0.781  -0.706  -0.661  -0.597  -0.556  -0.526  -0.517
 -0.489  -0.481  -0.459  -0.431  -0.414  -0.403  -0.401  -0.352
 -- Virtual --
 -0.037  -0.024  -0.016  -0.013  -0.003   0.006   0.011   0.012
  0.016   0.024   0.043   0.046   0.060   0.062   0.076   0.080
  0.085   0.091   0.104   0.115   0.117   0.125   0.128   0.131
  0.133   0.138   0.143   0.149   0.154   0.161   0.171   0.179
  0.193   0.205   0.218   0.223   0.233   0.238   0.248   0.256
  0.272   0.276   0.282   0.294   0.298   0.304   0.319   0.324
  0.341   0.358   0.388   0.410   0.427   0.437   0.466   0.480
  0.486   0.496   0.510   0.517   0.533   0.546   0.556   0.559
  0.566   0.573   0.579   0.592   0.601   0.615   0.627   0.629
  0.639   0.646   0.664   0.682   0.684   0.692   0.703   0.719
  0.733   0.763   0.775   0.785   0.829   0.839   0.865   0.892
  0.908   0.917   0.944   0.958   0.981   0.993   1.005   1.021
  1.036   1.051   1.066   1.079   1.109   1.116   1.134   1.147
  1.156   1.171   1.180   1.193   1.200   1.214   1.255   1.269
  1.280   1.289   1.302   1.311   1.326   1.333   1.348   1.360
  1.362   1.369   1.393   1.420   1.426   1.431   1.444   1.464
  1.487   1.490   1.511   1.527   1.552   1.569   1.581   1.592
  1.602   1.625   1.647   1.662   1.690   1.718   1.724   1.729
  1.827   1.983   2.090   2.191   2.244   2.330   2.391   2.459
  2.495   2.524   2.569   2.588   2.617   2.668   2.680   2.693
  2.716   2.746   2.761   2.791   2.849   2.858   2.892   2.916
  2.930   2.937   2.954   2.980   2.992   2.995   3.008   3.038
  3.053   3.074   3.117   3.139   3.159   3.171   3.188   3.211
  3.241   3.257   3.269   3.285   3.320   3.343   3.358   3.363
  3.368   3.390   3.411   3.438   3.440   3.458   3.490   3.512
  3.543   3.563   3.584   3.602   3.609   3.642   3.652   3.676
  3.710   3.743   3.760   3.766   3.773   3.789   3.819   3.841
  3.883   3.893   3.915   3.941   3.966   3.979   3.993   4.008
  4.029   4.032   4.073   4.113   4.121   4.162   4.168   4.182
  4.188   4.197   4.206   4.219   4.228   4.235   4.283   4.300
  4.311   4.370   4.379   4.429   4.456   4.477   4.503   4.525
  4.541   4.588   4.602   4.638   4.675   4.683   4.771   4.834
  4.912   4.934   5.011   5.141   5.172   5.195   5.226   5.316
  5.391   5.416   5.494   5.512   5.529   5.605   5.616   5.642
  5.671   5.690   5.698   5.810   6.069   6.549   6.940   7.153
  7.156   7.230   7.453   7.567  24.075  24.147  24.206  24.268
 24.355  49.811
 --------------------------------------------------------------
 
          Ground-State Mulliken Net Atomic Charges

     Atom                 Charge (a.u.)    Spin (a.u.)
  --------------------------------------------------------
      1 C                    -0.189591      -0.057416
      2 H                     0.255850       0.012583
      3 C                    -0.215357       0.519089
      4 H                     0.263534      -0.026303
      5 H                     0.237765      -0.070477
      6 C                    -0.443389       0.549615
      7 H                     0.245892      -0.012581
      8 O                    -0.290663       0.008349
      9 H                     0.264773       0.033191
     10 C                    -0.654269       0.009320
     11 H                     0.197831      -0.000186
     12 H                     0.195002      -0.000709
     13 H                     0.207744       0.002792
     14 C                    -0.690712       0.022043
     15 H                     0.201654       0.001950
     16 H                     0.198685       0.007486
     17 H                     0.215251       0.001256
  --------------------------------------------------------
  Sum of atomic charges =     0.000000
  Sum of spin   charges =     1.000000

 -----------------------------------------------------------------
                    Cartesian Multipole Moments
 -----------------------------------------------------------------
    Charge (ESU x 10^10)
                 0.0000
    Dipole Moment (Debye)
         X      -1.6049      Y      -0.2837      Z       0.5359
       Tot       1.7156
    Quadrupole Moments (Debye-Ang)
        XX     -47.7407     XY      -0.6659     YY     -41.4238
        XZ       2.3395     YZ       0.0361     ZZ     -37.4995
    Octapole Moments (Debye-Ang^2)
       XXX     -18.7533    XXY      -4.1819    XYY       3.8265
       YYY      -0.8669    XXZ       4.7992    XYZ      -0.7092
       YYZ      -0.0857    XZZ       8.8641    YZZ      -1.5143
       ZZZ       4.6278
    Hexadecapole Moments (Debye-Ang^3)
      XXXX    -861.5662   XXXY      -4.7979   XXYY    -170.5358
      XYYY      -3.4976   YYYY    -239.8304   XXXZ      23.9972
      XXYZ      -0.9579   XYYZ       3.6051   YYYZ      -0.0693
      XXZZ    -132.6668   XYZZ      -4.5350   YYZZ     -57.5445
      XZZZ      10.8582   YZZZ       2.2318   ZZZZ    -101.2619
 -----------------------------------------------------------------
 Calculating analytic gradient of the SCF energy
 Gradient of Coulomb and Exchange Energy
            1           2           3           4           5           6
    1   3.4473778   0.2014589  -0.1362448  -0.3882275  -0.1633158  -2.7016346
    2  -0.3199193   0.0425315  -1.1926792  -1.7370126  -2.9847651  -2.3725040
    3   0.4536235   4.7131002  -1.5366175  -4.5150936   1.4576224   3.5089852
            7           8           9          10          11          12
    1  -0.3548061 -11.8025108  -0.0002286   3.6578857   0.2861016   3.6548530
    2   2.1293127   0.8726587   1.1584466  -1.2996018  -3.8502168   0.9216557
    3   4.4322977  -0.4985277  -4.5402064  -0.5224819   0.9510055   0.9761758
           13          14          15          16          17
    1   0.8617515   2.3944346  -2.6471985   3.2646777   0.4256260
    2  -0.6516239   3.1778760   2.8833011   2.1144824   1.1080579
    3  -3.6951273   0.5064209   0.9059199   1.1991936  -3.7962903
 Gradient of SCF Energy
            1           2           3           4           5           6
    1   0.0003372  -0.0000019  -0.0008877  -0.0002025  -0.0007885  -0.0004884
    2   0.0001301  -0.0001456   0.0018217  -0.0020091  -0.0029451  -0.0000913
    3  -0.0011765   0.0054017  -0.0005770  -0.0043938   0.0016521  -0.0004940
            7           8           9          10          11          12
    1   0.0005881  -0.0013545  -0.0000958  -0.0014617  -0.0002126   0.0043002
    2   0.0024228  -0.0013765   0.0011639   0.0009440  -0.0047462   0.0016712
    3   0.0044467   0.0006986  -0.0032553   0.0008463   0.0015138   0.0015244
           13          14          15          16          17
    1   0.0001769  -0.0002885  -0.0039783   0.0040172   0.0003408
    2  -0.0000473  -0.0023510   0.0030555   0.0021276   0.0003753
    3  -0.0051132   0.0002147   0.0015528   0.0019036  -0.0047450
 Max gradient component =       5.402E-03
 RMS gradient           =       2.309E-03
 Gradient time:  CPU 93.42 s  wall 115.69 s
 Geometry Optimization Parameters
   NAtoms,    NIC,     NZ,  NCons,   NDum,   NFix, NCnnct, MaxDiis
       17     125      17       0       0       0       0       0


** GEOMETRY OPTIMIZATION IN DELOCALIZED INTERNAL COORDINATES **
   Searching for a Transition State

   Optimization Cycle:   1

                       Coordinates (Angstroms)
     ATOM              X           Y           Z
      1  C        -1.011317    0.012004   -0.333783
      2  H        -1.004075    0.028445   -1.428366
      3  C         0.302456    0.559181    0.150958
      4  H         0.382381    0.951344    1.159161
      5  H         1.035585    1.345454   -0.606476
      6  C         1.574758    0.166926   -0.486686
      7  H         1.533048   -0.353509   -1.434990
      8  O         2.705551   -0.047599    0.261813
      9  H         2.446411   -0.310189    1.152627
     10  C        -2.179805    0.864172    0.152253
     11  H        -2.088237    1.891648   -0.197237
     12  H        -3.130094    0.460388   -0.196480
     13  H        -2.203959    0.880468    1.243579
     14  C        -1.178426   -1.448024    0.107642
     15  H        -0.334761   -2.053148   -0.224139
     16  H        -2.093478   -1.879180   -0.300775
     17  H        -1.233230   -1.506488    1.196287
   Point Group: c1    Number of degrees of freedom:    45


   Energy is   -272.139718210


 Attempting to Generate Delocalized Internal Coordinates
 GETINT wrote B to file, NVib is           45
 calling HSSCONV
 HCONV 3*NATOMS:           51
 wrote HINT to file
  writing hessian 

 45 Hessian modes will be used to form the next step
  Hessian Eigenvalues:
     0.004625    0.005778    0.008722    0.018368    0.019225    0.024124
     0.027855    0.038085    0.047020    0.049153    0.050980    0.055874
     0.056345    0.057036    0.057833    0.089893    0.107012    0.119941
     0.123734    0.160000    0.160000    0.160000    0.160000    0.160000
     0.160000    0.160000    0.167296    0.169122    0.171785    0.175090
     0.290184    0.293823    0.298234    0.320175    0.342716    0.346152
     0.346295    0.347110    0.348167    0.348336    0.349117    0.354281
     0.356902    0.504158    0.545825
**WARNING** Hessian does not have the Desired Local Structure

 Transition State Search - Taking P-RFO Step
 Searching for Lamda that Maximizes Along the Lowest mode
 Value Taken    Lamda =   0.00462908
 Searching for Lamda that Minimizes Along All other modes
 Value Taken    Lamda =  -0.00092391
 Calculated Step too Large.  Step scaled by  0.009054
 Step Taken.  Stepsize is  0.300000

                             Maximum     Tolerance    Cnvgd?
         Gradient           0.012340      0.000300      NO
         Displacement       0.160153      0.001200      NO
         Energy change     *********      0.000001      NO


 New Cartesian Coordinates Obtained by Inverse Iteration

 Displacement from previous Coordinates is:  0.325312
 ----------------------------------------------------
       Standard Nuclear Orientation (Angstroms)
    I     Atom         X            Y            Z
 ----------------------------------------------------
    1      C      -1.009782     0.010882    -0.336909
    2      H      -0.997214     0.026234    -1.431536
    3      C       0.300985     0.560186     0.153705
    4      H       0.375504     0.953569     1.161916
    5      H       1.036833     1.346603    -0.601037
    6      C       1.576875     0.168834    -0.477353
    7      H       1.540405    -0.352707    -1.425343
    8      O       2.704296    -0.043432     0.276899
    9      H       2.441238    -0.305431     1.166769
   10      C      -2.181722     0.862124     0.142584
   11      H      -2.089717     1.889436    -0.207484
   12      H      -3.129861     0.456807    -0.210404
   13      H      -2.211233     0.879461     1.233833
   14      C      -1.177230    -1.448959     0.105195
   15      H      -0.384046    -2.073012    -0.306628
   16      H      -2.137073    -1.850666    -0.222682
   17      H      -1.135450    -1.518033     1.193862
 ----------------------------------------------------
 Molecular Point Group                 C1    NOp =  1
 Largest Abelian Subgroup              C1    NOp =  1
 Nuclear Repulsion Energy =   245.0073361178 hartrees
 There are       25 alpha and       24 beta electrons
 Applying Cartesian multipole field
    Component          Value
    ---------          -----
     (2,0,0)        1.00000E-11
     (0,2,0)        2.00000E-11
     (0,0,2)       -3.00000E-11
 Nucleus-field energy     =     0.0000000066 hartrees
 Requested basis set is non-standard
 There are 138 shells and 314 basis functions
 A cutoff of  1.0D-11 yielded   8951 shell pairs
 There are     45815 function pairs (     54930 Cartesian)
 Smallest overlap matrix eigenvalue = 1.46E-05
 Guess MOs from SCF MO coefficient file
Reading MOs from coefficient file
Reading MOs from coefficient file
 An unrestricted hybrid HF-DFT SCF calculation will be
 performed using Pulay DIIS extrapolation
 Exchange:     0.5679 Hartree-Fock + 1.0000 M08SO
 SCF converges when DIIS error is below 1.0E-08
Geometry optimization detected.  Setting ReadMinima to 0
Setting SaveMinima to 0
 Inaccurate integrated density:
   Number of electrons =    49
   Numerical integral  =    48.994262598781
   Relative error      =    -0.0117089821 %
 ---------------------------------------
  Cycle       Energy         DIIS Error
 ---------------------------------------
    1    -272.1358258441      3.45E-04
    2    -272.1394536497      5.89E-05
    3    -272.1395392873      3.27E-05
    4    -272.1395528554      9.90E-06
    5    -272.1395542534      3.45E-06
    6    -272.1395543742      7.81E-07
    7    -272.1395543818      1.66E-07
    8    -272.1395543827      7.47E-08
    9    -272.1395543830      1.98E-08
   10    -272.1395543834      1.13E-08
   11    -272.1395543835      4.14E-09 Convergence criterion met
 ---------------------------------------
 <S^2> = 0.7580
 SCF time:  CPU 652.48 s  wall 803.19 s
 SCF   energy in the final basis set = -272.1395543835
 Total energy in the final basis set = -272.1395543835
 Analysis of SCF Wavefunction
 
 --------------------------------------------------------------
                    Orbital Energies (a.u.)
 --------------------------------------------------------------
 
 Alpha MOs
 -- Occupied --
-19.585 -10.558 -10.511 -10.510 -10.486 -10.484  -1.164  -0.931
 -0.856  -0.782  -0.716  -0.665  -0.605  -0.566  -0.535  -0.520
 -0.495  -0.483  -0.460  -0.436  -0.419  -0.411  -0.403  -0.369
 -0.191
 -- Virtual --
 -0.025  -0.014  -0.009  -0.007   0.013   0.016   0.018   0.022
  0.025   0.049   0.051   0.067   0.067   0.080   0.084   0.090
  0.096   0.109   0.117   0.122   0.129   0.131   0.135   0.137
  0.142   0.147   0.153   0.158   0.162   0.175   0.180   0.194
  0.206   0.216   0.225   0.232   0.239   0.248   0.259   0.269
  0.272   0.280   0.299   0.302   0.307   0.322   0.325   0.335
  0.359   0.387   0.407   0.427   0.436   0.465   0.478   0.485
  0.494   0.510   0.516   0.531   0.545   0.548   0.556   0.561
  0.573   0.575   0.586   0.598   0.611   0.618   0.626   0.637
  0.641   0.656   0.674   0.679   0.690   0.702   0.713   0.729
  0.751   0.776   0.779   0.825   0.835   0.861   0.891   0.903
  0.910   0.942   0.963   0.979   0.989   1.002   1.015   1.027
  1.048   1.057   1.077   1.111   1.113   1.134   1.141   1.152
  1.169   1.177   1.191   1.194   1.215   1.250   1.254   1.273
  1.286   1.294   1.309   1.323   1.329   1.340   1.351   1.360
  1.365   1.397   1.413   1.420   1.424   1.440   1.459   1.484
  1.487   1.513   1.516   1.543   1.560   1.577   1.584   1.595
  1.623   1.638   1.654   1.684   1.711   1.718   1.722   1.821
  1.976   2.079   2.179   2.241   2.323   2.389   2.445   2.483
  2.514   2.554   2.573   2.612   2.636   2.666   2.678   2.691
  2.705   2.725   2.759   2.831   2.845   2.856   2.883   2.912
  2.920   2.930   2.953   2.962   2.972   2.976   3.006   3.030
  3.056   3.072   3.099   3.132   3.151   3.170   3.194   3.197
  3.233   3.249   3.280   3.296   3.316   3.340   3.353   3.363
  3.375   3.399   3.416   3.420   3.431   3.458   3.496   3.532
  3.553   3.563   3.585   3.593   3.621   3.625   3.664   3.692
  3.735   3.745   3.752   3.760   3.775   3.798   3.825   3.875
  3.880   3.904   3.928   3.956   3.974   3.981   3.990   4.018
  4.028   4.061   4.082   4.107   4.144   4.154   4.168   4.172
  4.179   4.197   4.203   4.211   4.216   4.270   4.281   4.296
  4.341   4.366   4.406   4.454   4.471   4.480   4.516   4.523
  4.577   4.588   4.614   4.656   4.676   4.742   4.830   4.860
  4.909   4.978   5.106   5.150   5.184   5.200   5.290   5.386
  5.404   5.456   5.500   5.523   5.581   5.586   5.639   5.665
  5.680   5.684   5.808   6.068   6.555   6.940   7.141   7.153
  7.229   7.458   7.577  24.072  24.141  24.206  24.265  24.346
 49.809
 
 Beta MOs
 -- Occupied --
-19.583 -10.549 -10.510 -10.502 -10.485 -10.484  -1.157  -0.925
 -0.845  -0.781  -0.706  -0.661  -0.597  -0.556  -0.526  -0.516
 -0.489  -0.481  -0.459  -0.431  -0.414  -0.403  -0.400  -0.352
 -- Virtual --
 -0.037  -0.024  -0.016  -0.013  -0.002   0.006   0.011   0.012
  0.016   0.024   0.043   0.047   0.060   0.062   0.076   0.081
  0.083   0.091   0.104   0.115   0.117   0.125   0.128   0.131
  0.133   0.139   0.144   0.150   0.155   0.159   0.171   0.178
  0.193   0.205   0.217   0.224   0.231   0.238   0.247   0.256
  0.270   0.276   0.280   0.296   0.298   0.305   0.321   0.324
  0.341   0.357   0.388   0.412   0.428   0.435   0.467   0.478
  0.486   0.496   0.510   0.517   0.534   0.546   0.555   0.558
  0.566   0.573   0.578   0.591   0.601   0.615   0.626   0.628
  0.643   0.646   0.664   0.682   0.684   0.693   0.704   0.720
  0.729   0.760   0.779   0.781   0.828   0.841   0.866   0.896
  0.906   0.915   0.946   0.964   0.980   0.995   1.005   1.018
  1.030   1.051   1.060   1.080   1.113   1.117   1.136   1.146
  1.156   1.173   1.180   1.195   1.198   1.216   1.254   1.261
  1.279   1.287   1.302   1.312   1.325   1.332   1.348   1.356
  1.361   1.370   1.399   1.420   1.426   1.435   1.442   1.464
  1.488   1.491   1.515   1.527   1.552   1.567   1.580   1.591
  1.600   1.628   1.644   1.660   1.688   1.718   1.725   1.729
  1.830   1.983   2.090   2.188   2.243   2.329   2.392   2.457
  2.498   2.524   2.570   2.591   2.615   2.665   2.676   2.694
  2.711   2.745   2.762   2.795   2.845   2.862   2.892   2.918
  2.931   2.939   2.947   2.980   2.990   2.998   3.005   3.037
  3.055   3.072   3.117   3.137   3.160   3.174   3.189   3.210
  3.242   3.258   3.269   3.285   3.316   3.337   3.353   3.368
  3.371   3.388   3.412   3.431   3.440   3.458   3.490   3.522
  3.549   3.568   3.581   3.599   3.610   3.642   3.649   3.674
  3.713   3.744   3.758   3.765   3.768   3.790   3.819   3.844
  3.886   3.892   3.920   3.938   3.970   3.980   3.993   4.007
  4.025   4.038   4.073   4.112   4.118   4.157   4.170   4.177
  4.187   4.195   4.212   4.216   4.228   4.237   4.284   4.298
  4.313   4.360   4.377   4.433   4.462   4.476   4.502   4.524
  4.540   4.587   4.603   4.637   4.667   4.685   4.772   4.837
  4.911   4.933   5.010   5.140   5.171   5.195   5.223   5.315
  5.393   5.416   5.494   5.512   5.529   5.604   5.616   5.641
  5.670   5.690   5.699   5.811   6.069   6.549   6.940   7.153
  7.156   7.230   7.452   7.567  24.076  24.146  24.206  24.268
 24.355  49.811
 --------------------------------------------------------------
 
          Ground-State Mulliken Net Atomic Charges

     Atom                 Charge (a.u.)    Spin (a.u.)
  --------------------------------------------------------
      1 C                    -0.181818      -0.055963
      2 H                     0.256899       0.012245
      3 C                    -0.217475       0.518966
      4 H                     0.265219      -0.026309
      5 H                     0.236849      -0.070612
      6 C                    -0.433840       0.550418
      7 H                     0.244599      -0.012580
      8 O                    -0.291006       0.008120
      9 H                     0.264329       0.033345
     10 C                    -0.663246       0.008583
     11 H                     0.198273      -0.000307
     12 H                     0.195397      -0.000700
     13 H                     0.207227       0.002768
     14 C                    -0.690888       0.023810
     15 H                     0.199037       0.001468
     16 H                     0.194650       0.006583
     17 H                     0.215793       0.000164
  --------------------------------------------------------
  Sum of atomic charges =     0.000000
  Sum of spin   charges =     1.000000

 -----------------------------------------------------------------
                    Cartesian Multipole Moments
 -----------------------------------------------------------------
    Charge (ESU x 10^10)
                 0.0000
    Dipole Moment (Debye)
         X      -1.6111      Y      -0.2917      Z       0.5299
       Tot       1.7209
    Quadrupole Moments (Debye-Ang)
        XX     -47.7735     XY      -0.6707     YY     -41.4222
        XZ       2.2840     YZ       0.0419     ZZ     -37.4713
    Octapole Moments (Debye-Ang^2)
       XXX     -18.9995    XXY      -4.2210    XYY       3.8230
       YYY      -0.9340    XXZ       4.5585    XYZ      -0.6516
       YYZ      -0.1626    XZZ       9.0449    YZZ      -1.5555
       ZZZ       4.5679
    Hexadecapole Moments (Debye-Ang^3)
      XXXX    -861.3040   XXXY      -4.9500   XXYY    -170.6991
      XYYY      -3.8801   YYYY    -239.8378   XXXZ      21.6104
      XXYZ      -1.0226   XYYZ       2.8832   YYYZ       0.0669
      XXZZ    -132.9220   XYZZ      -4.9114   YYZZ     -57.4385
      XZZZ       9.5983   YZZZ       2.2177   ZZZZ    -101.0058
 -----------------------------------------------------------------
 Calculating analytic gradient of the SCF energy
 Gradient of Coulomb and Exchange Energy
            1           2           3           4           5           6
    1   3.6608164   0.1672794  -0.3261507  -0.3593176  -0.1593192  -2.6673144
    2  -0.2464361   0.0669357  -1.2685810  -1.6956717  -2.9997367  -2.2831784
    3   0.4194249   4.7023659  -1.5163828  -4.5162181   1.4586706   3.4921096
            7           8           9          10          11          12
    1  -0.3874886 -11.8244734   0.0218715   3.5275161   0.2786890   3.6588820
    2   2.1332674   0.8426317   1.1531761  -1.4174771  -3.8472965   0.9281373
    3   4.4353687  -0.5587926  -4.5432385  -0.5739763   0.9518046   1.0027706
           13          14          15          16          17
    1   0.8958555   2.5400982  -2.4969846   3.4110112   0.0590291
    2  -0.6652546   3.2096651   2.9560286   2.0047559   1.1290343
    3  -3.6812246   0.6153805   1.2244060   0.8995117  -3.8119803
 Gradient of SCF Energy
            1           2           3           4           5           6
    1   0.0006716   0.0002243  -0.0009215  -0.0001128  -0.0007314  -0.0007308
    2  -0.0000031  -0.0001775   0.0018527  -0.0019391  -0.0028764  -0.0001382
    3  -0.0010948   0.0053354  -0.0001785  -0.0043687   0.0016344  -0.0003818
            7           8           9          10          11          12
    1   0.0005660  -0.0013581  -0.0000843  -0.0015887  -0.0002603   0.0041883
    2   0.0024223  -0.0013465   0.0011702   0.0008434  -0.0047254   0.0016430
    3   0.0043923   0.0006552  -0.0032157   0.0005441   0.0014317   0.0015650
           13          14          15          16          17
    1   0.0002689  -0.0005843  -0.0038239   0.0039734   0.0003038
    2  -0.0000827  -0.0021095   0.0029985   0.0020131   0.0004552
    3  -0.0051049   0.0002215   0.0013499   0.0019136  -0.0046989
 Max gradient component =       5.335E-03
 RMS gradient           =       2.274E-03
 Gradient time:  CPU 92.84 s  wall 111.74 s
 Geometry Optimization Parameters
   NAtoms,    NIC,     NZ,  NCons,   NDum,   NFix, NCnnct, MaxDiis
       17     125      17       0       0       0       0       0

 Cartesian Hessian Update
 Hessian Updated using Powell/Murtagh-Sargent Update
  Mixing factors:     0.000008 Powell
                      0.999992 Murtagh-Sargent


** GEOMETRY OPTIMIZATION IN DELOCALIZED INTERNAL COORDINATES **
   Searching for a Transition State

   Optimization Cycle:   2

                       Coordinates (Angstroms)
     ATOM              X           Y           Z
      1  C        -1.009782    0.010882   -0.336909
      2  H        -0.997214    0.026234   -1.431536
      3  C         0.300985    0.560186    0.153705
      4  H         0.375504    0.953569    1.161916
      5  H         1.036833    1.346603   -0.601037
      6  C         1.576875    0.168834   -0.477353
      7  H         1.540405   -0.352707   -1.425343
      8  O         2.704296   -0.043432    0.276899
      9  H         2.441238   -0.305431    1.166769
     10  C        -2.181722    0.862124    0.142584
     11  H        -2.089717    1.889436   -0.207484
     12  H        -3.129861    0.456807   -0.210404
     13  H        -2.211233    0.879461    1.233833
     14  C        -1.177230   -1.448959    0.105195
     15  H        -0.384046   -2.073012   -0.306628
     16  H        -2.137073   -1.850666   -0.222682
     17  H        -1.135450   -1.518033    1.193862
   Point Group: c1    Number of degrees of freedom:    45


   Energy is   -272.139554383

 GETINT wrote B to file, NVib is           45
 Hessian Updated using Powell/Murtagh-Sargent Update
  Mixing factors:     0.555326 Powell
                      0.444674 Murtagh-Sargent

 40 Hessian modes will be used to form the next step
  Hessian Eigenvalues:
     0.002800    0.005787    0.008720    0.018368    0.019224    0.024124
     0.027852    0.038085    0.047016    0.049053    0.050955    0.055869
     0.056344    0.057035    0.057832    0.089885    0.107011    0.119941
     0.123722    0.159706    0.160000    0.167296    0.169089    0.171779
     0.175062    0.290082    0.293682    0.298221    0.320170    0.342715
     0.346147    0.346294    0.347097    0.348065    0.348331    0.349117
     0.354281    0.356902    0.504155    0.545825
**WARNING** Hessian does not have the Desired Local Structure

 Transition State Search - Taking P-RFO Step
 Searching for Lamda that Maximizes Along the Lowest mode
 Value Taken    Lamda =   0.00310622
 Searching for Lamda that Minimizes Along All other modes
 Value Taken    Lamda =  -0.00091511
 Calculated Step too Large.  Step scaled by  0.094217
 Step Taken.  Stepsize is  0.300000

                             Maximum     Tolerance    Cnvgd?
         Gradient           0.012261      0.000300      NO
         Displacement       0.176655      0.001200      NO
         Energy change      0.000164      0.000001      NO


 New Cartesian Coordinates Obtained by Inverse Iteration

 Displacement from previous Coordinates is:  0.323492
 ----------------------------------------------------
       Standard Nuclear Orientation (Angstroms)
    I     Atom         X            Y            Z
 ----------------------------------------------------
    1      C      -1.008954     0.009059    -0.339808
    2      H      -0.989011     0.022476    -1.435093
    3      C       0.299360     0.560865     0.156054
    4      H       0.368505     0.955345     1.164923
    5      H       1.036906     1.348542    -0.596627
    6      C       1.579236     0.171698    -0.469755
    7      H       1.547584    -0.351214    -1.417956
    8      O       2.703806    -0.037769     0.290037
    9      H       2.438101    -0.301059     1.179056
   10      C      -2.184396     0.860904     0.132399
   11      H      -2.085068     1.891102    -0.209293
   12      H      -3.129938     0.460786    -0.235045
   13      H      -2.227246     0.871077     1.224095
   14      C      -1.175618    -1.451003     0.105169
   15      H      -0.439373    -2.092872    -0.379642
   16      H      -2.172137    -1.823574    -0.138940
   17      H      -1.038948    -1.532470     1.185812
 ----------------------------------------------------
 Molecular Point Group                 C1    NOp =  1
 Largest Abelian Subgroup              C1    NOp =  1
 Nuclear Repulsion Energy =   244.8940579431 hartrees
 There are       25 alpha and       24 beta electrons
 Applying Cartesian multipole field
    Component          Value
    ---------          -----
     (2,0,0)        1.00000E-11
     (0,2,0)        2.00000E-11
     (0,0,2)       -3.00000E-11
 Nucleus-field energy     =     0.0000000066 hartrees
 Requested basis set is non-standard
 There are 138 shells and 314 basis functions
 A cutoff of  1.0D-11 yielded   8949 shell pairs
 There are     45803 function pairs (     54918 Cartesian)
 Smallest overlap matrix eigenvalue = 1.50E-05
 Guess MOs from SCF MO coefficient file
Reading MOs from coefficient file
Reading MOs from coefficient file
 An unrestricted hybrid HF-DFT SCF calculation will be
 performed using Pulay DIIS extrapolation
 Exchange:     0.5679 Hartree-Fock + 1.0000 M08SO
 SCF converges when DIIS error is below 1.0E-08
Geometry optimization detected.  Setting ReadMinima to 0
Setting SaveMinima to 0
 Inaccurate integrated density:
   Number of electrons =    49
   Numerical integral  =    48.990563984967
   Relative error      =    -0.0192571735 %
 ---------------------------------------
  Cycle       Energy         DIIS Error
 ---------------------------------------
    1    -272.1343890135      3.43E-04
    2    -272.1391276296      6.03E-05
    3    -272.1392119115      3.74E-05
    4    -272.1392298381      9.39E-06
    5    -272.1392311195      4.10E-06
    6    -272.1392312914      7.87E-07
    7    -272.1392312992      2.00E-07
    8    -272.1392313001      8.10E-08
    9    -272.1392313004      1.96E-08
   10    -272.1392313005      1.19E-08
   11    -272.1392313004      3.24E-09 Convergence criterion met
 ---------------------------------------
 <S^2> = 0.7580
 SCF time:  CPU 655.59 s  wall 804.55 s
 SCF   energy in the final basis set = -272.1392313004
 Total energy in the final basis set = -272.1392313004
 Analysis of SCF Wavefunction
 
 --------------------------------------------------------------
                    Orbital Energies (a.u.)
 --------------------------------------------------------------
 
 Alpha MOs
 -- Occupied --
-19.585 -10.558 -10.511 -10.510 -10.486 -10.484  -1.164  -0.931
 -0.855  -0.782  -0.716  -0.665  -0.605  -0.566  -0.535  -0.520
 -0.495  -0.482  -0.460  -0.437  -0.419  -0.411  -0.402  -0.369
 -0.191
 -- Virtual --
 -0.025  -0.014  -0.009  -0.007   0.013   0.016   0.018   0.021
  0.025   0.049   0.051   0.067   0.068   0.080   0.085   0.089
  0.096   0.109   0.117   0.122   0.129   0.131   0.134   0.136
  0.143   0.147   0.154   0.159   0.161   0.174   0.180   0.194
  0.207   0.215   0.225   0.231   0.239   0.246   0.260   0.265
  0.273   0.278   0.301   0.303   0.308   0.321   0.326   0.336
  0.358   0.387   0.407   0.429   0.435   0.465   0.477   0.483
  0.495   0.509   0.516   0.530   0.544   0.546   0.556   0.561
  0.572   0.574   0.586   0.597   0.611   0.616   0.625   0.637
  0.643   0.656   0.674   0.680   0.690   0.702   0.713   0.725
  0.746   0.776   0.780   0.826   0.837   0.862   0.893   0.902
  0.908   0.941   0.969   0.978   0.990   1.003   1.011   1.023
  1.048   1.051   1.080   1.112   1.116   1.136   1.140   1.150
  1.168   1.181   1.192   1.195   1.219   1.244   1.255   1.273
  1.284   1.296   1.310   1.321   1.328   1.335   1.349   1.359
  1.363   1.399   1.413   1.421   1.424   1.438   1.458   1.485
  1.487   1.513   1.517   1.542   1.556   1.568   1.584   1.591
  1.624   1.637   1.654   1.682   1.711   1.718   1.723   1.822
  1.976   2.078   2.176   2.241   2.322   2.391   2.443   2.484
  2.512   2.552   2.576   2.609   2.635   2.658   2.677   2.690
  2.701   2.725   2.763   2.829   2.848   2.857   2.882   2.910
  2.920   2.931   2.951   2.959   2.972   2.979   3.004   3.033
  3.055   3.070   3.095   3.131   3.152   3.170   3.193   3.197
  3.233   3.249   3.277   3.296   3.309   3.328   3.351   3.365
  3.370   3.407   3.411   3.420   3.435   3.460   3.502   3.530
  3.551   3.566   3.591   3.594   3.617   3.625   3.662   3.693
  3.736   3.746   3.748   3.757   3.777   3.800   3.826   3.872
  3.880   3.907   3.925   3.950   3.973   3.980   3.985   4.016
  4.029   4.060   4.079   4.109   4.138   4.152   4.162   4.168
  4.180   4.195   4.205   4.211   4.216   4.270   4.279   4.300
  4.334   4.362   4.409   4.454   4.468   4.480   4.517   4.523
  4.571   4.588   4.613   4.647   4.673   4.741   4.835   4.854
  4.909   4.977   5.103   5.149   5.184   5.196   5.288   5.387
  5.402   5.453   5.498   5.522   5.577   5.586   5.635   5.662
  5.679   5.681   5.808   6.067   6.553   6.940   7.139   7.153
  7.229   7.458   7.577  24.072  24.138  24.202  24.262  24.342
 49.809
 
 Beta MOs
 -- Occupied --
-19.582 -10.548 -10.510 -10.502 -10.485 -10.484  -1.157  -0.925
 -0.845  -0.781  -0.706  -0.661  -0.597  -0.556  -0.525  -0.516
 -0.489  -0.481  -0.460  -0.432  -0.414  -0.403  -0.400  -0.352
 -- Virtual --
 -0.037  -0.024  -0.016  -0.013  -0.002   0.007   0.011   0.012
  0.016   0.024   0.043   0.047   0.060   0.062   0.075   0.081
  0.083   0.091   0.104   0.116   0.117   0.124   0.128   0.130
  0.133   0.139   0.144   0.151   0.156   0.158   0.170   0.178
  0.192   0.206   0.217   0.224   0.230   0.237   0.245   0.257
  0.265   0.276   0.279   0.298   0.299   0.307   0.321   0.325
  0.341   0.356   0.389   0.412   0.430   0.434   0.467   0.477
  0.485   0.497   0.510   0.518   0.534   0.545   0.553   0.558
  0.566   0.571   0.579   0.590   0.601   0.615   0.623   0.627
  0.644   0.645   0.664   0.682   0.684   0.693   0.704   0.719
  0.725   0.755   0.778   0.784   0.828   0.842   0.867   0.898
  0.906   0.912   0.945   0.971   0.979   0.996   1.007   1.013
  1.027   1.052   1.053   1.082   1.113   1.120   1.138   1.145
  1.153   1.170   1.185   1.196   1.198   1.222   1.249   1.260
  1.279   1.286   1.304   1.313   1.323   1.329   1.346   1.351
  1.360   1.368   1.402   1.419   1.428   1.434   1.440   1.463
  1.487   1.492   1.516   1.526   1.550   1.563   1.572   1.591
  1.596   1.630   1.643   1.660   1.687   1.718   1.725   1.729
  1.831   1.983   2.090   2.185   2.243   2.327   2.394   2.456
  2.498   2.523   2.569   2.593   2.612   2.655   2.676   2.695
  2.705   2.745   2.762   2.797   2.839   2.867   2.893   2.920
  2.932   2.937   2.943   2.979   2.990   2.999   3.005   3.035
  3.055   3.073   3.116   3.134   3.159   3.174   3.190   3.210
  3.242   3.260   3.269   3.281   3.310   3.332   3.343   3.368
  3.374   3.385   3.416   3.428   3.441   3.459   3.491   3.527
  3.555   3.569   3.583   3.598   3.613   3.643   3.643   3.672
  3.716   3.744   3.756   3.762   3.765   3.791   3.819   3.847
  3.887   3.888   3.926   3.935   3.961   3.980   3.992   4.004
  4.020   4.040   4.074   4.106   4.119   4.151   4.168   4.172
  4.188   4.193   4.207   4.222   4.227   4.238   4.285   4.295
  4.315   4.352   4.373   4.432   4.467   4.474   4.499   4.524
  4.538   4.583   4.601   4.634   4.659   4.683   4.771   4.841
  4.910   4.930   5.009   5.139   5.171   5.195   5.217   5.313
  5.395   5.414   5.493   5.511   5.529   5.601   5.615   5.637
  5.667   5.687   5.697   5.810   6.068   6.548   6.940   7.152
  7.155   7.229   7.453   7.567  24.076  24.143  24.202  24.265
 24.351  49.811
 --------------------------------------------------------------
 
          Ground-State Mulliken Net Atomic Charges

     Atom                 Charge (a.u.)    Spin (a.u.)
  --------------------------------------------------------
      1 C                    -0.148526      -0.054006
      2 H                     0.256339       0.011828
      3 C                    -0.235346       0.518353
      4 H                     0.267388      -0.026396
      5 H                     0.235655      -0.070844
      6 C                    -0.419817       0.551614
      7 H                     0.242531      -0.012640
      8 O                    -0.292609       0.007808
      9 H                     0.264477       0.033430
     10 C                    -0.680563       0.007982
     11 H                     0.198811      -0.000624
     12 H                     0.196325      -0.000687
     13 H                     0.207862       0.002742
     14 C                    -0.694540       0.025382
     15 H                     0.196970       0.001062
     16 H                     0.190853       0.005804
     17 H                     0.214190      -0.000809
  --------------------------------------------------------
  Sum of atomic charges =     0.000000
  Sum of spin   charges =     1.000000

 -----------------------------------------------------------------
                    Cartesian Multipole Moments
 -----------------------------------------------------------------
    Charge (ESU x 10^10)
                 0.0000
    Dipole Moment (Debye)
         X      -1.6202      Y      -0.3043      Z       0.5251
       Tot       1.7301
    Quadrupole Moments (Debye-Ang)
        XX     -47.8117     XY      -0.6947     YY     -41.4220
        XZ       2.2337     YZ       0.0470     ZZ     -37.4484
    Octapole Moments (Debye-Ang^2)
       XXX     -19.2287    XXY      -4.2763    XYY       3.8275
       YYY      -1.0174    XXZ       4.3987    XYZ      -0.6209
       YYZ      -0.2181    XZZ       9.2025    YZZ      -1.6301
       ZZZ       4.4827
    Hexadecapole Moments (Debye-Ang^3)
      XXXX    -861.5938   XXXY      -5.3977   XXYY    -171.0787
      XYYY      -4.3268   YYYY    -240.0828   XXXZ      19.4372
      XXYZ      -1.1166   XYYZ       2.2422   YYYZ       0.3404
      XXZZ    -133.1692   XYZZ      -5.2645   YYZZ     -57.3965
      XZZZ       8.5234   YZZZ       2.3918   ZZZZ    -100.9176
 -----------------------------------------------------------------
 Calculating analytic gradient of the SCF energy
 Gradient of Coulomb and Exchange Energy
            1           2           3           4           5           6
    1   3.7911233   0.1214767  -0.4885042  -0.3322760  -0.1471510  -2.6355448
    2  -0.0068399   0.0961065  -1.4409249  -1.6519912  -3.0088482  -2.1909622
    3   0.2963662   4.6915109  -1.4528086  -4.5106436   1.4624260   3.4526530
            7           8           9          10          11          12
    1  -0.4189172 -11.8388789   0.0415044   3.4397303   0.2502832   3.6575534
    2   2.1320473   0.7991633   1.1580992  -1.6007096  -3.8486025   0.9208430
    3   4.4458857  -0.6138513  -4.5406322  -0.5772568   0.9184491   1.0625195
           13          14          15          16          17
    1   0.9558961   2.6846165  -2.3127533   3.5259385  -0.2940969
    2  -0.6420310   3.2202849   3.0239246   1.8899159   1.1505247
    3  -3.6653218   0.7126647   1.5159999   0.5929551  -3.7909158
 Gradient of SCF Energy
            1           2           3           4           5           6
    1   0.0005116   0.0006452  -0.0010443  -0.0000775  -0.0006756  -0.0006722
    2  -0.0002667  -0.0002373   0.0016420  -0.0017214  -0.0027054  -0.0000296
    3  -0.0009714   0.0048024   0.0000614  -0.0039751   0.0015255  -0.0003506
            7           8           9          10          11          12
    1   0.0005110  -0.0012451  -0.0000475  -0.0016677  -0.0002869   0.0037996
    2   0.0022329  -0.0012997   0.0010844   0.0007289  -0.0042939   0.0014763
    3   0.0039549   0.0005766  -0.0028852   0.0002853   0.0012802   0.0014760
           13          14          15          16          17
    1   0.0002806  -0.0004924  -0.0035215   0.0036322   0.0003506
    2  -0.0000133  -0.0017842   0.0028218   0.0019244   0.0004406
    3  -0.0046132   0.0001403   0.0011991   0.0017745  -0.0042808
 Max gradient component =       4.802E-03
 RMS gradient           =       2.075E-03
 Gradient time:  CPU 93.60 s  wall 97.11 s
 Geometry Optimization Parameters
   NAtoms,    NIC,     NZ,  NCons,   NDum,   NFix, NCnnct, MaxDiis
       17     125      17       0       0       0       0       0

 Cartesian Hessian Update
 Hessian Updated using Powell/Murtagh-Sargent Update
  Mixing factors:     0.975236 Powell
                      0.024764 Murtagh-Sargent


** GEOMETRY OPTIMIZATION IN DELOCALIZED INTERNAL COORDINATES **
   Searching for a Transition State

   Optimization Cycle:   3

                       Coordinates (Angstroms)
     ATOM              X           Y           Z
      1  C        -1.008954    0.009059   -0.339808
      2  H        -0.989011    0.022476   -1.435093
      3  C         0.299360    0.560865    0.156054
      4  H         0.368505    0.955345    1.164923
      5  H         1.036906    1.348542   -0.596627
      6  C         1.579236    0.171698   -0.469755
      7  H         1.547584   -0.351214   -1.417956
      8  O         2.703806   -0.037769    0.290037
      9  H         2.438101   -0.301059    1.179056
     10  C        -2.184396    0.860904    0.132399
     11  H        -2.085068    1.891102   -0.209293
     12  H        -3.129938    0.460786   -0.235045
     13  H        -2.227246    0.871077    1.224095
     14  C        -1.175618   -1.451003    0.105169
     15  H        -0.439373   -2.092872   -0.379642
     16  H        -2.172137   -1.823574   -0.138940
     17  H        -1.038948   -1.532470    1.185812
   Point Group: c1    Number of degrees of freedom:    45


   Energy is   -272.139231300

 GETINT wrote B to file, NVib is           45
 Hessian Updated using Powell/Murtagh-Sargent Update
  Mixing factors:     0.957633 Powell
                      0.042367 Murtagh-Sargent

 41 Hessian modes will be used to form the next step
  Hessian Eigenvalues:
     0.002414    0.005797    0.008721    0.018368    0.019222    0.024121
     0.027852    0.038082    0.047016    0.049053    0.050949    0.055869
     0.056344    0.057035    0.057831    0.089885    0.107011    0.119941
     0.123722    0.159705    0.159944    0.160000    0.167290    0.169080
     0.171779    0.175050    0.289895    0.293682    0.298200    0.320154
     0.342714    0.346147    0.346293    0.347097    0.348062    0.348330
     0.349117    0.354281    0.356903    0.504155    0.545825
**WARNING** Hessian does not have the Desired Local Structure

 Transition State Search - Taking P-RFO Step
 Searching for Lamda that Maximizes Along the Lowest mode
 Value Taken    Lamda =   0.00325468
 Searching for Lamda that Minimizes Along All other modes
 Value Taken    Lamda =  -0.00078931
 Calculated Step too Large.  Step scaled by  0.152311
 Step Taken.  Stepsize is  0.300000

                             Maximum     Tolerance    Cnvgd?
         Gradient           0.011167      0.000300      NO
         Displacement       0.188696      0.001200      NO
         Energy change      0.000323      0.000001      NO


 New Cartesian Coordinates Obtained by Inverse Iteration

 Displacement from previous Coordinates is:  0.324575
 ----------------------------------------------------
       Standard Nuclear Orientation (Angstroms)
    I     Atom         X            Y            Z
 ----------------------------------------------------
    1      C      -1.008201     0.006758    -0.342183
    2      H      -0.981416     0.017843    -1.438379
    3      C       0.298121     0.562024     0.157984
    4      H       0.362536     0.957964     1.167639
    5      H       1.036433     1.351060    -0.594197
    6      C       1.581774     0.175148    -0.463288
    7      H       1.554142    -0.350818    -1.411082
    8      O       2.704304    -0.029472     0.301515
    9      H       2.437000    -0.294348     1.190035
   10      C      -2.186851     0.859977     0.121963
   11      H      -2.074112     1.895520    -0.202339
   12      H      -3.128977     0.471726    -0.269047
   13      H      -2.249830     0.854253     1.213839
   14      C      -1.174750    -1.454222     0.106790
   15      H      -0.501177    -2.113081    -0.443726
   16      H      -2.199402    -1.798342    -0.051766
   17      H      -0.946788    -1.550094     1.171629
 ----------------------------------------------------
 Molecular Point Group                 C1    NOp =  1
 Largest Abelian Subgroup              C1    NOp =  1
 Nuclear Repulsion Energy =   244.7143445864 hartrees
 There are       25 alpha and       24 beta electrons
 Applying Cartesian multipole field
    Component          Value
    ---------          -----
     (2,0,0)        1.00000E-11
     (0,2,0)        2.00000E-11
     (0,0,2)       -3.00000E-11
 Nucleus-field energy     =     0.0000000067 hartrees
 Requested basis set is non-standard
 There are 138 shells and 314 basis functions
 A cutoff of  1.0D-11 yielded   8948 shell pairs
 There are     45806 function pairs (     54926 Cartesian)
 Smallest overlap matrix eigenvalue = 1.55E-05
 Guess MOs from SCF MO coefficient file
Reading MOs from coefficient file
Reading MOs from coefficient file
 An unrestricted hybrid HF-DFT SCF calculation will be
 performed using Pulay DIIS extrapolation
 Exchange:     0.5679 Hartree-Fock + 1.0000 M08SO
 SCF converges when DIIS error is below 1.0E-08
Geometry optimization detected.  Setting ReadMinima to 0
Setting SaveMinima to 0
 Inaccurate integrated density:
   Number of electrons =    49
   Numerical integral  =    48.987975617697
   Relative error      =    -0.0245395557 %
 ---------------------------------------
  Cycle       Energy         DIIS Error
 ---------------------------------------
    1    -272.1329484278      3.44E-04
    2    -272.1386515990      6.20E-05
    3    -272.1387362944      4.12E-05
    4    -272.1387582349      9.22E-06
    5    -272.1387594830      4.56E-06
    6    -272.1387596978      8.21E-07
    7    -272.1387597065      2.40E-07
    8    -272.1387597076      8.67E-08
    9    -272.1387597079      2.39E-08
   10    -272.1387597079      1.42E-08
   11    -272.1387597079      3.57E-09 Convergence criterion met
 ---------------------------------------
 <S^2> = 0.7580
 SCF time:  CPU 645.90 s  wall 778.53 s
 SCF   energy in the final basis set = -272.1387597079
 Total energy in the final basis set = -272.1387597079
 Analysis of SCF Wavefunction
 
 --------------------------------------------------------------
                    Orbital Energies (a.u.)
 --------------------------------------------------------------
 
 Alpha MOs
 -- Occupied --
-19.585 -10.558 -10.511 -10.510 -10.486 -10.485  -1.163  -0.930
 -0.855  -0.782  -0.716  -0.665  -0.605  -0.565  -0.535  -0.520
 -0.494  -0.482  -0.461  -0.437  -0.419  -0.411  -0.402  -0.368
 -0.191
 -- Virtual --
 -0.025  -0.014  -0.009  -0.007   0.013   0.016   0.018   0.021
  0.025   0.048   0.051   0.066   0.068   0.079   0.086   0.087
  0.096   0.108   0.118   0.122   0.129   0.131   0.133   0.135
  0.143   0.147   0.154   0.159   0.161   0.173   0.180   0.193
  0.208   0.215   0.226   0.229   0.237   0.244   0.260   0.262
  0.274   0.277   0.301   0.303   0.310   0.320   0.327   0.337
  0.358   0.387   0.407   0.430   0.435   0.463   0.476   0.481
  0.496   0.507   0.517   0.530   0.543   0.546   0.556   0.561
  0.570   0.574   0.586   0.597   0.610   0.615   0.623   0.636
  0.642   0.656   0.674   0.681   0.689   0.702   0.712   0.722
  0.742   0.772   0.783   0.829   0.838   0.863   0.893   0.900
  0.907   0.938   0.970   0.981   0.991   1.003   1.008   1.024
  1.045   1.051   1.083   1.111   1.118   1.137   1.140   1.147
  1.167   1.182   1.190   1.202   1.224   1.239   1.257   1.274
  1.281   1.301   1.308   1.319   1.325   1.335   1.347   1.358
  1.361   1.397   1.410   1.419   1.428   1.436   1.456   1.483
  1.489   1.509   1.518   1.538   1.551   1.556   1.585   1.589
  1.624   1.637   1.653   1.680   1.711   1.717   1.722   1.821
  1.976   2.077   2.173   2.240   2.321   2.393   2.442   2.483
  2.508   2.549   2.579   2.604   2.631   2.651   2.676   2.690
  2.696   2.727   2.766   2.825   2.851   2.858   2.881   2.908
  2.922   2.931   2.948   2.954   2.972   2.982   3.003   3.034
  3.057   3.069   3.092   3.131   3.154   3.170   3.194   3.197
  3.235   3.248   3.268   3.295   3.306   3.314   3.349   3.364
  3.364   3.408   3.414   3.419   3.440   3.466   3.503   3.527
  3.550   3.568   3.589   3.602   3.614   3.627   3.661   3.694
  3.735   3.745   3.748   3.755   3.780   3.801   3.828   3.868
  3.878   3.911   3.922   3.937   3.969   3.976   3.979   4.014
  4.026   4.060   4.076   4.110   4.134   4.150   4.155   4.162
  4.181   4.192   4.208   4.212   4.215   4.268   4.279   4.304
  4.328   4.356   4.408   4.452   4.464   4.481   4.517   4.524
  4.562   4.587   4.611   4.640   4.666   4.739   4.839   4.850
  4.908   4.975   5.099   5.148   5.183   5.192   5.284   5.388
  5.400   5.449   5.497   5.521   5.573   5.585   5.628   5.658
  5.674   5.677   5.807   6.065   6.552   6.939   7.137   7.153
  7.228   7.458   7.577  24.071  24.135  24.195  24.257  24.337
 49.809
 
 Beta MOs
 -- Occupied --
-19.582 -10.548 -10.510 -10.502 -10.485 -10.485  -1.156  -0.924
 -0.844  -0.780  -0.706  -0.661  -0.597  -0.555  -0.525  -0.516
 -0.488  -0.480  -0.460  -0.432  -0.414  -0.402  -0.400  -0.352
 -- Virtual --
 -0.037  -0.024  -0.016  -0.013  -0.002   0.006   0.011   0.012
  0.015   0.024   0.042   0.047   0.060   0.063   0.075   0.081
  0.083   0.092   0.104   0.116   0.118   0.124   0.128   0.130
  0.132   0.140   0.144   0.151   0.157   0.158   0.170   0.178
  0.192   0.206   0.217   0.225   0.228   0.236   0.243   0.257
  0.262   0.276   0.278   0.299   0.300   0.308   0.320   0.326
  0.342   0.356   0.389   0.413   0.431   0.434   0.466   0.476
  0.483   0.497   0.509   0.519   0.534   0.544   0.551   0.559
  0.565   0.570   0.580   0.589   0.600   0.615   0.622   0.626
  0.644   0.645   0.665   0.684   0.684   0.692   0.704   0.717
  0.724   0.751   0.774   0.788   0.831   0.843   0.869   0.897
  0.905   0.912   0.943   0.972   0.982   0.996   1.008   1.010
  1.027   1.048   1.053   1.085   1.113   1.121   1.139   1.145
  1.149   1.169   1.187   1.195   1.205   1.228   1.243   1.262
  1.278   1.284   1.307   1.312   1.322   1.328   1.345   1.348
  1.359   1.366   1.401   1.417   1.429   1.432   1.438   1.462
  1.485   1.493   1.514   1.526   1.547   1.556   1.564   1.591
  1.594   1.630   1.644   1.659   1.686   1.718   1.724   1.729
  1.830   1.983   2.089   2.182   2.243   2.326   2.397   2.455
  2.497   2.519   2.567   2.596   2.608   2.641   2.677   2.695
  2.700   2.746   2.762   2.798   2.834   2.872   2.894   2.921
  2.930   2.933   2.942   2.979   2.990   2.998   3.007   3.033
  3.057   3.075   3.115   3.133   3.159   3.174   3.191   3.209
  3.242   3.262   3.269   3.273   3.305   3.321   3.339   3.365
  3.375   3.380   3.420   3.427   3.440   3.462   3.495   3.529
  3.558   3.568   3.590   3.596   3.616   3.636   3.643   3.671
  3.717   3.742   3.755   3.759   3.765   3.793   3.819   3.849
  3.884   3.887   3.928   3.937   3.942   3.977   3.989   3.998
  4.017   4.039   4.077   4.101   4.121   4.146   4.162   4.168
  4.188   4.193   4.204   4.224   4.227   4.241   4.283   4.292
  4.319   4.346   4.368   4.427   4.468   4.474   4.495   4.526
  4.538   4.577   4.598   4.631   4.652   4.678   4.769   4.845
  4.908   4.926   5.006   5.138   5.170   5.194   5.209   5.310
  5.396   5.413   5.491   5.508   5.528   5.597   5.614   5.630
  5.663   5.681   5.694   5.809   6.066   6.546   6.940   7.150
  7.155   7.229   7.453   7.567  24.074  24.139  24.195  24.260
 24.346  49.811
 --------------------------------------------------------------
 
          Ground-State Mulliken Net Atomic Charges

     Atom                 Charge (a.u.)    Spin (a.u.)
  --------------------------------------------------------
      1 C                    -0.096558      -0.051868
      2 H                     0.254827       0.011440
      3 C                    -0.263411       0.517216
      4 H                     0.269751      -0.026469
      5 H                     0.234326      -0.071071
      6 C                    -0.404492       0.553178
      7 H                     0.240148      -0.012726
      8 O                    -0.294863       0.007339
      9 H                     0.265093       0.033472
     10 C                    -0.704540       0.007585
     11 H                     0.199334      -0.001096
     12 H                     0.197263      -0.000678
     13 H                     0.210143       0.002707
     14 C                    -0.703602       0.026534
     15 H                     0.195802       0.000830
     16 H                     0.189127       0.005078
     17 H                     0.211651      -0.001473
  --------------------------------------------------------
  Sum of atomic charges =     0.000000
  Sum of spin   charges =     1.000000

 -----------------------------------------------------------------
                    Cartesian Multipole Moments
 -----------------------------------------------------------------
    Charge (ESU x 10^10)
                 0.0000
    Dipole Moment (Debye)
         X      -1.6295      Y      -0.3200      Z       0.5211
       Tot       1.7405
    Quadrupole Moments (Debye-Ang)
        XX     -47.8492     XY      -0.7242     YY     -41.4212
        XZ       2.1947     YZ       0.0549     ZZ     -37.4330
    Octapole Moments (Debye-Ang^2)
       XXX     -19.4320    XXY      -4.3636    XYY       3.8275
       YYY      -1.1374    XXZ       4.3039    XYZ      -0.5989
       YYZ      -0.2664    XZZ       9.3208    YZZ      -1.7325
       ZZZ       4.3753
    Hexadecapole Moments (Debye-Ang^3)
      XXXX    -862.3870   XXXY      -6.2555   XXYY    -171.6255
      XYYY      -4.9410   YYYY    -240.5513   XXXZ      17.4727
      XXYZ      -1.2322   XYYZ       1.6646   YYYZ       0.7049
      XXZZ    -133.3469   XYZZ      -5.6050   YYZZ     -57.4115
      XZZZ       7.6203   YZZZ       2.6974   ZZZZ    -100.9584
 -----------------------------------------------------------------
 Calculating analytic gradient of the SCF energy
 Gradient of Coulomb and Exchange Energy
            1           2           3           4           5           6
    1   3.7960615   0.0850599  -0.5952021  -0.3118360  -0.1298827  -2.6060613
    2   0.3072810   0.1242508  -1.6366349  -1.6193746  -3.0140740  -2.1076255
    3   0.0899172   4.6806158  -1.3518259  -4.4975010   1.4700679   3.3888959
            7           8           9          10          11          12
    1  -0.4459517 -11.8466144   0.0584552   3.4076043   0.2046970   3.6480836
    2   2.1347379   0.7443472   1.1639942  -1.8071384  -3.8525313   0.8960972
    3   4.4574235  -0.6614662  -4.5346612  -0.5094145   0.8538446   1.1473972
           13          14          15          16          17
    1   1.0315471   2.8057692  -2.0949488   3.6081762  -0.6149570
    2  -0.5765733   3.2045935   3.0834376   1.7773709   1.1778417
    3  -3.6483002   0.7885413   1.7726516   0.2853178  -3.7315038
 Gradient of SCF Energy
            1           2           3           4           5           6
    1   0.0001206   0.0009575  -0.0010133  -0.0000282  -0.0006131  -0.0005079
    2  -0.0004053  -0.0003057   0.0014281  -0.0014443  -0.0023797   0.0001250
    3  -0.0007346   0.0040627   0.0001608  -0.0033838   0.0013658  -0.0002408
            7           8           9          10          11          12
    1   0.0004189  -0.0010488  -0.0000315  -0.0015626  -0.0002614   0.0032231
    2   0.0019461  -0.0012244   0.0009505   0.0005257  -0.0036398   0.0012494
    3   0.0033324   0.0004708  -0.0024423  -0.0000414   0.0010835   0.0012783
           13          14          15          16          17
    1   0.0002853  -0.0004798  -0.0030464   0.0031616   0.0004259
    2   0.0000438  -0.0013875   0.0024459   0.0017259   0.0003462
    3  -0.0039101   0.0001233   0.0009558   0.0016230  -0.0037034
 Max gradient component =       4.063E-03
 RMS gradient           =       1.782E-03
 Gradient time:  CPU 92.00 s  wall 113.67 s
 Geometry Optimization Parameters
   NAtoms,    NIC,     NZ,  NCons,   NDum,   NFix, NCnnct, MaxDiis
       17     125      17       0       0       0       0       0

 Cartesian Hessian Update
 Hessian Updated using Powell/Murtagh-Sargent Update
  Mixing factors:     0.977644 Powell
                      0.022356 Murtagh-Sargent


** GEOMETRY OPTIMIZATION IN DELOCALIZED INTERNAL COORDINATES **
   Searching for a Transition State

   Optimization Cycle:   4

                       Coordinates (Angstroms)
     ATOM              X           Y           Z
      1  C        -1.008201    0.006758   -0.342183
      2  H        -0.981416    0.017843   -1.438379
      3  C         0.298121    0.562024    0.157984
      4  H         0.362536    0.957964    1.167639
      5  H         1.036433    1.351060   -0.594197
      6  C         1.581774    0.175148   -0.463288
      7  H         1.554142   -0.350818   -1.411082
      8  O         2.704304   -0.029472    0.301515
      9  H         2.437000   -0.294348    1.190035
     10  C        -2.186851    0.859977    0.121963
     11  H        -2.074112    1.895520   -0.202339
     12  H        -3.128977    0.471726   -0.269047
     13  H        -2.249830    0.854253    1.213839
     14  C        -1.174750   -1.454222    0.106790
     15  H        -0.501177   -2.113081   -0.443726
     16  H        -2.199402   -1.798342   -0.051766
     17  H        -0.946788   -1.550094    1.171629
   Point Group: c1    Number of degrees of freedom:    45


   Energy is   -272.138759708

 GETINT wrote B to file, NVib is           45
 Hessian Updated using Powell/Murtagh-Sargent Update
  Mixing factors:     0.836411 Powell
                      0.163589 Murtagh-Sargent

 42 Hessian modes will be used to form the next step
  Hessian Eigenvalues:
     0.001876    0.005783    0.008718    0.018367    0.019217    0.024107
     0.027848    0.038082    0.047015    0.049050    0.050943    0.055869
     0.056344    0.057032    0.057828    0.089882    0.106998    0.119941
     0.123721    0.159699    0.159888    0.159997    0.160000    0.167290
     0.169035    0.171778    0.175001    0.289684    0.293680    0.298200
     0.320152    0.342713    0.346147    0.346290    0.347091    0.348059
     0.348330    0.349117    0.354281    0.356902    0.504154    0.545824
**WARNING** Hessian does not have the Desired Local Structure

 Transition State Search - Taking P-RFO Step
 Searching for Lamda that Maximizes Along the Lowest mode
 Value Taken    Lamda =   0.00329991
 Searching for Lamda that Minimizes Along All other modes
 Value Taken    Lamda =  -0.00061280
 Calculated Step too Large.  Step scaled by  0.196560
 Step Taken.  Stepsize is  0.300000

                             Maximum     Tolerance    Cnvgd?
         Gradient           0.009521      0.000300      NO
         Displacement       0.193865      0.001200      NO
         Energy change      0.000472      0.000001      NO


 New Cartesian Coordinates Obtained by Inverse Iteration

 Displacement from previous Coordinates is:  0.327051
 ----------------------------------------------------
       Standard Nuclear Orientation (Angstroms)
    I     Atom         X            Y            Z
 ----------------------------------------------------
    1      C      -1.007342     0.004777    -0.344621
    2      H      -0.974865     0.013806    -1.441777
    3      C       0.297149     0.564015     0.158856
    4      H       0.357184     0.963113     1.168694
    5      H       1.036274     1.352501    -0.595317
    6      C       1.584299     0.177483    -0.457171
    7      H       1.560281    -0.354804    -1.402809
    8      O       2.705123    -0.019165     0.312929
    9      H       2.436751    -0.284058     1.201628
   10      C      -2.189139     0.859017     0.112422
   11      H      -2.060389     1.901251    -0.187448
   12      H      -3.126657     0.487063    -0.307417
   13      H      -2.276265     0.830711     1.203517
   14      C      -1.174014    -1.457733     0.108416
   15      H      -0.568453    -2.132040    -0.500941
   16      H      -2.218424    -1.773780     0.036399
   17      H      -0.858706    -1.570263     1.150028
 ----------------------------------------------------
 Molecular Point Group                 C1    NOp =  1
 Largest Abelian Subgroup              C1    NOp =  1
 Nuclear Repulsion Energy =   244.5143441186 hartrees
 There are       25 alpha and       24 beta electrons
 Applying Cartesian multipole field
    Component          Value
    ---------          -----
     (2,0,0)        1.00000E-11
     (0,2,0)        2.00000E-11
     (0,0,2)       -3.00000E-11
 Nucleus-field energy     =     0.0000000067 hartrees
 Requested basis set is non-standard
 There are 138 shells and 314 basis functions
 A cutoff of  1.0D-11 yielded   8944 shell pairs
 There are     45820 function pairs (     54944 Cartesian)
 Smallest overlap matrix eigenvalue = 1.57E-05
 Guess MOs from SCF MO coefficient file
Reading MOs from coefficient file
Reading MOs from coefficient file
 An unrestricted hybrid HF-DFT SCF calculation will be
 performed using Pulay DIIS extrapolation
 Exchange:     0.5679 Hartree-Fock + 1.0000 M08SO
 SCF converges when DIIS error is below 1.0E-08
Geometry optimization detected.  Setting ReadMinima to 0
Setting SaveMinima to 0
 Inaccurate integrated density:
   Number of electrons =    49
   Numerical integral  =    48.986732632287
   Relative error      =    -0.0270762606 %
 ---------------------------------------
  Cycle       Energy         DIIS Error
 ---------------------------------------
    1    -272.1316682451      3.50E-04
    2    -272.1380402961      6.38E-05
    3    -272.1381270532      4.39E-05
    4    -272.1381521265      9.19E-06
    5    -272.1381534065      4.76E-06
    6    -272.1381536450      8.75E-07
    7    -272.1381536562      2.73E-07
    8    -272.1381536579      9.82E-08
    9    -272.1381536583      3.15E-08
   10    -272.1381536584      1.74E-08
   11    -272.1381536582      4.68E-09 Convergence criterion met
 ---------------------------------------
 <S^2> = 0.7581
 SCF time:  CPU 647.96 s  wall 801.94 s
 SCF   energy in the final basis set = -272.1381536582
 Total energy in the final basis set = -272.1381536582
 Analysis of SCF Wavefunction
 
 --------------------------------------------------------------
                    Orbital Energies (a.u.)
 --------------------------------------------------------------
 
 Alpha MOs
 -- Occupied --
-19.584 -10.558 -10.511 -10.511 -10.487 -10.485  -1.163  -0.930
 -0.854  -0.781  -0.715  -0.665  -0.604  -0.565  -0.534  -0.519
 -0.494  -0.481  -0.461  -0.437  -0.418  -0.410  -0.401  -0.368
 -0.190
 -- Virtual --
 -0.025  -0.014  -0.009  -0.007   0.013   0.016   0.018   0.021
  0.025   0.048   0.051   0.066   0.068   0.079   0.086   0.087
  0.096   0.108   0.118   0.122   0.129   0.131   0.133   0.134
  0.143   0.147   0.153   0.159   0.163   0.172   0.180   0.193
  0.208   0.216   0.226   0.228   0.236   0.243   0.259   0.261
  0.274   0.276   0.302   0.304   0.311   0.319   0.327   0.339
  0.358   0.388   0.407   0.430   0.437   0.462   0.475   0.480
  0.495   0.507   0.519   0.530   0.541   0.545   0.556   0.561
  0.568   0.574   0.587   0.596   0.609   0.614   0.621   0.634
  0.641   0.656   0.672   0.682   0.688   0.701   0.711   0.720
  0.739   0.769   0.787   0.833   0.839   0.865   0.892   0.898
  0.908   0.935   0.966   0.985   0.990   1.001   1.011   1.028
  1.042   1.052   1.086   1.108   1.119   1.134   1.139   1.146
  1.166   1.181   1.190   1.209   1.226   1.237   1.256   1.277
  1.280   1.302   1.307   1.315   1.326   1.340   1.347   1.355
  1.360   1.393   1.407   1.413   1.431   1.438   1.454   1.480
  1.489   1.504   1.518   1.533   1.540   1.553   1.583   1.590
  1.623   1.637   1.652   1.677   1.711   1.716   1.721   1.818
  1.976   2.076   2.171   2.240   2.319   2.397   2.443   2.480
  2.502   2.545   2.581   2.600   2.625   2.647   2.676   2.690
  2.695   2.731   2.768   2.820   2.852   2.860   2.880   2.906
  2.925   2.930   2.944   2.952   2.973   2.984   3.001   3.035
  3.061   3.069   3.090   3.131   3.155   3.170   3.194   3.197
  3.236   3.245   3.257   3.293   3.302   3.306   3.346   3.358
  3.362   3.404   3.416   3.420   3.446   3.475   3.502   3.524
  3.550   3.566   3.583   3.608   3.614   3.629   3.662   3.695
  3.730   3.743   3.750   3.755   3.784   3.802   3.829   3.865
  3.875   3.905   3.921   3.926   3.966   3.971   3.974   4.011
  4.021   4.062   4.074   4.110   4.133   4.146   4.150   4.157
  4.183   4.190   4.209   4.212   4.215   4.264   4.282   4.307
  4.325   4.350   4.405   4.443   4.464   4.477   4.518   4.527
  4.554   4.584   4.611   4.635   4.657   4.737   4.840   4.848
  4.905   4.972   5.094   5.147   5.181   5.189   5.280   5.389
  5.399   5.445   5.495   5.521   5.569   5.585   5.620   5.655
  5.666   5.674   5.807   6.063   6.550   6.939   7.134   7.153
  7.228   7.459   7.577  24.069  24.131  24.188  24.251  24.331
 49.808
 
 Beta MOs
 -- Occupied --
-19.582 -10.549 -10.511 -10.502 -10.486 -10.485  -1.156  -0.923
 -0.844  -0.780  -0.706  -0.660  -0.596  -0.555  -0.525  -0.515
 -0.488  -0.480  -0.461  -0.432  -0.414  -0.401  -0.400  -0.352
 -- Virtual --
 -0.037  -0.024  -0.016  -0.013  -0.002   0.006   0.011   0.012
  0.015   0.024   0.042   0.047   0.059   0.063   0.074   0.080
  0.084   0.092   0.104   0.116   0.118   0.124   0.128   0.130
  0.131   0.140   0.144   0.151   0.157   0.160   0.168   0.178
  0.191   0.207   0.217   0.225   0.227   0.235   0.242   0.256
  0.260   0.276   0.277   0.299   0.301   0.310   0.320   0.327
  0.343   0.357   0.390   0.412   0.430   0.437   0.464   0.475
  0.482   0.496   0.509   0.521   0.533   0.543   0.550   0.559
  0.563   0.569   0.581   0.589   0.600   0.614   0.620   0.624
  0.642   0.643   0.665   0.682   0.686   0.690   0.703   0.715
  0.723   0.748   0.771   0.792   0.835   0.844   0.870   0.895
  0.902   0.912   0.941   0.969   0.986   0.993   1.006   1.014
  1.030   1.045   1.054   1.089   1.109   1.123   1.137   1.144
  1.148   1.168   1.188   1.194   1.212   1.231   1.241   1.262
  1.280   1.282   1.307   1.314   1.316   1.332   1.347   1.349
  1.358   1.365   1.396   1.416   1.424   1.435   1.439   1.460
  1.483   1.494   1.508   1.524   1.543   1.546   1.562   1.588
  1.594   1.630   1.645   1.657   1.684   1.718   1.722   1.728
  1.827   1.983   2.087   2.180   2.243   2.325   2.401   2.455
  2.494   2.514   2.564   2.600   2.603   2.631   2.677   2.696
  2.699   2.747   2.764   2.798   2.829   2.876   2.896   2.920
  2.925   2.933   2.941   2.981   2.989   2.998   3.009   3.030
  3.061   3.076   3.114   3.132   3.158   3.174   3.193   3.208
  3.241   3.262   3.263   3.269   3.301   3.311   3.339   3.359
  3.374   3.377   3.423   3.428   3.437   3.465   3.503   3.530
  3.558   3.570   3.589   3.595   3.619   3.634   3.643   3.671
  3.719   3.737   3.754   3.756   3.767   3.796   3.819   3.851
  3.879   3.885   3.918   3.928   3.943   3.974   3.985   3.992
  4.014   4.034   4.080   4.099   4.121   4.145   4.157   4.163
  4.187   4.193   4.203   4.222   4.227   4.244   4.280   4.293
  4.322   4.341   4.364   4.421   4.462   4.475   4.492   4.528
  4.538   4.572   4.593   4.629   4.648   4.671   4.767   4.848
  4.906   4.921   5.003   5.136   5.169   5.193   5.201   5.306
  5.397   5.411   5.489   5.506   5.527   5.594   5.614   5.622
  5.658   5.673   5.690   5.809   6.064   6.544   6.940   7.147
  7.154   7.229   7.454   7.567  24.073  24.136  24.188  24.254
 24.340  49.811
 --------------------------------------------------------------
 
          Ground-State Mulliken Net Atomic Charges

     Atom                 Charge (a.u.)    Spin (a.u.)
  --------------------------------------------------------
      1 C                    -0.030817      -0.049509
      2 H                     0.253027       0.011214
      3 C                    -0.296884       0.515824
      4 H                     0.271817      -0.026483
      5 H                     0.232956      -0.071284
      6 C                    -0.389614       0.554704
      7 H                     0.238098      -0.012755
      8 O                    -0.297226       0.006680
      9 H                     0.266002       0.033482
     10 C                    -0.736369       0.007287
     11 H                     0.199674      -0.001642
     12 H                     0.198219      -0.000680
[...]
 H          0.199 -0.004  0.009    0.144 -0.091  0.113    0.176 -0.057  0.017
 O          0.041 -0.020  0.026   -0.028 -0.011 -0.004   -0.014 -0.004 -0.012
 H          0.157 -0.039  0.048    0.361 -0.015  0.094    0.022 -0.015 -0.009
 C         -0.008  0.053 -0.034    0.027 -0.078 -0.085   -0.064 -0.065  0.035
 H         -0.173  0.129  0.155    0.226 -0.062  0.019    0.260 -0.119 -0.059
 H         -0.004 -0.078  0.111   -0.079  0.070  0.066   -0.174  0.239  0.014
 H          0.108 -0.150 -0.018    0.349 -0.129 -0.078    0.000  0.229  0.029
 C          0.005  0.015 -0.087    0.049 -0.073  0.050   -0.072 -0.020  0.040
 H          0.047 -0.033  0.145   -0.092 -0.255  0.044    0.062  0.192 -0.043
 H         -0.058 -0.068  0.155   -0.033  0.141 -0.013    0.050 -0.233  0.009
 H          0.069  0.382 -0.061   -0.133 -0.159  0.037    0.117 -0.187  0.047
 TransDip   0.000  0.000  0.000    0.000  0.000  0.000    0.000  0.000  0.000

 Mode:                22                     23                     24
 Frequency:      1202.81                1217.11                1274.36
 Force Cnst:      1.5665                 1.3299                 1.1776
 Red. Mass:       1.8377                 1.5237                 1.2307
 IR Active:          YES                    YES                    YES
 IR Intens:        0.000                  0.000                  0.000
 Raman Active:       YES                    YES                    YES
               X      Y      Z        X      Y      Z        X      Y      Z
 C          0.039 -0.003 -0.146   -0.040 -0.030 -0.076   -0.019  0.002  0.005
 H          0.182 -0.042 -0.148    0.047 -0.029 -0.073    0.237 -0.234  0.006
 C         -0.002 -0.016 -0.003   -0.067  0.055  0.105   -0.047  0.005  0.010
 H          0.665 -0.016 -0.066    0.113 -0.008  0.125   -0.016  0.211 -0.082
 H         -0.179 -0.047 -0.150   -0.167 -0.130 -0.296    0.252  0.242  0.528
 C         -0.154  0.031 -0.022    0.086  0.012 -0.003   -0.003 -0.006 -0.117
 H         -0.174  0.134 -0.082    0.795 -0.206  0.092    0.050 -0.224  0.006
 O          0.080 -0.012  0.063   -0.063 -0.017 -0.045   -0.025 -0.003  0.034
 H          0.134  0.002  0.082    0.099 -0.042 -0.018    0.556  0.006  0.176
 C         -0.012 -0.011  0.088    0.028  0.017  0.042    0.014  0.004  0.027
 H          0.042 -0.092 -0.148   -0.066 -0.016 -0.076   -0.012 -0.020 -0.044
 H          0.039  0.062 -0.148    0.109 -0.071 -0.096    0.050 -0.024 -0.043
 H         -0.234  0.225  0.066   -0.149  0.042  0.032   -0.077  0.027  0.023
 C         -0.022  0.009  0.067    0.019  0.008  0.028   -0.002 -0.005 -0.019
 H         -0.013  0.116 -0.146   -0.030 -0.009 -0.066    0.017 -0.001  0.029
 H          0.071 -0.009 -0.124    0.016  0.094 -0.066   -0.022  0.003  0.019
 H          0.010 -0.248  0.049   -0.054 -0.089  0.015    0.019  0.077 -0.015
 TransDip   0.000  0.000  0.000    0.000  0.000  0.000    0.000  0.000  0.000

 Mode:                25                     26                     27
 Frequency:      1305.91                1321.31                1357.98
 Force Cnst:      1.3215                 1.4047                 1.4613
 Red. Mass:       1.3152                 1.3656                 1.3450
 IR Active:          YES                    YES                    YES
 IR Intens:        0.000                  0.000                  0.000
 Raman Active:       YES                    YES                    YES
               X      Y      Z        X      Y      Z        X      Y      Z
 C          0.075 -0.008  0.008    0.006 -0.154 -0.012   -0.125  0.009 -0.010
 H         -0.539 -0.009  0.005    0.065  0.874 -0.009    0.503  0.006 -0.009
 C          0.049  0.021  0.057   -0.012  0.011 -0.011    0.045  0.012  0.006
 H         -0.277 -0.065  0.115   -0.020  0.050 -0.025   -0.223 -0.095  0.077
 H         -0.196 -0.108 -0.356    0.102  0.055  0.136   -0.106 -0.160 -0.342
 C         -0.042  0.007 -0.089    0.019 -0.008 -0.023    0.083 -0.015 -0.011
 H          0.013  0.099 -0.157   -0.088 -0.022 -0.014   -0.431  0.245 -0.159
 O         -0.009 -0.014  0.053   -0.013  0.003  0.006   -0.037  0.003  0.017
 H          0.548 -0.018  0.185    0.120  0.002  0.038    0.275  0.010  0.096
 C         -0.016 -0.004 -0.035    0.006  0.034 -0.029    0.010  0.015  0.034
 H         -0.023  0.045  0.089   -0.143  0.076  0.057    0.079 -0.062 -0.144
 H         -0.088  0.065  0.083   -0.033 -0.016  0.110    0.120 -0.129 -0.103
 H          0.048 -0.001 -0.028   -0.053 -0.090 -0.023    0.011 -0.088  0.030
 C         -0.019  0.005 -0.010   -0.003  0.029  0.064    0.037  0.017  0.001
 H          0.023  0.034  0.036   -0.016  0.114 -0.139   -0.076 -0.125 -0.016
 H          0.007 -0.059  0.006    0.065  0.100 -0.147   -0.003 -0.004  0.084
 H          0.057 -0.006 -0.003    0.004 -0.122  0.051   -0.150 -0.095 -0.013
 TransDip   0.000  0.000  0.000    0.000  0.000  0.000    0.000  0.000  0.000

 Mode:                28                     29                     30
 Frequency:      1377.02                1395.86                1434.09
 Force Cnst:      1.4389                 1.4653                 2.7341
 Red. Mass:       1.2880                 1.2764                 2.2564
 IR Active:          YES                    YES                    YES
 IR Intens:        0.000                  0.000                  0.000
 Raman Active:       YES                    YES                    YES
               X      Y      Z        X      Y      Z        X      Y      Z
 C         -0.031  0.033 -0.002    0.037 -0.009 -0.008    0.099  0.013 -0.005
 H          0.084 -0.048 -0.002   -0.087  0.021 -0.011   -0.279 -0.087 -0.008
 C          0.002  0.001  0.001   -0.013  0.003  0.005   -0.218  0.009  0.025
 H         -0.018 -0.033  0.018    0.024  0.003  0.006    0.510 -0.005 -0.020
 H         -0.037 -0.052 -0.089   -0.005 -0.007  0.004   -0.023 -0.186  0.029
 C          0.031 -0.004  0.005    0.008 -0.002 -0.004    0.220 -0.035  0.006
 H         -0.126  0.063 -0.033   -0.016  0.001 -0.006   -0.550  0.154 -0.086
 O         -0.010  0.001  0.000   -0.002  0.000  0.001   -0.052  0.008 -0.015
 H          0.037  0.004  0.014    0.012  0.001  0.004    0.089  0.037  0.029
 C          0.062 -0.050 -0.016   -0.102  0.071  0.036   -0.007 -0.010 -0.008
 H         -0.245  0.036  0.122    0.422 -0.079 -0.215   -0.023  0.048  0.137
 H         -0.106  0.235  0.092    0.190 -0.370 -0.226   -0.010  0.020 -0.023
 H         -0.215  0.192 -0.020    0.393 -0.266  0.045    0.032  0.145 -0.011
 C         -0.005 -0.121  0.034   -0.021 -0.069  0.026   -0.026  0.020 -0.015
 H          0.234  0.360 -0.219    0.146  0.241 -0.121    0.008 -0.058  0.206
 H         -0.142  0.417 -0.194   -0.055  0.234 -0.192    0.030 -0.041 -0.055
 H         -0.009  0.478  0.044    0.093  0.291  0.041    0.221 -0.127 -0.001
 TransDip   0.000  0.000  0.000    0.000  0.000  0.000    0.000  0.000  0.000

 Mode:                31                     32                     33
 Frequency:      1463.41                1468.24                1479.44
 Force Cnst:      1.3191                 1.3394                 1.3523
 Red. Mass:       1.0454                 1.0546                 1.0487
 IR Active:          YES                    YES                    YES
 IR Intens:        0.000                  0.000                  0.000
 Raman Active:       YES                    YES                    YES
               X      Y      Z        X      Y      Z        X      Y      Z
 C         -0.006  0.002  0.001   -0.023  0.027 -0.002    0.023  0.005 -0.024
 H          0.003  0.036  0.001    0.057 -0.063 -0.002   -0.019  0.001 -0.028
 C          0.010 -0.001 -0.003    0.010 -0.002 -0.001   -0.011 -0.002  0.002
 H         -0.016 -0.009  0.002   -0.019 -0.011  0.005    0.046  0.008 -0.009
 H         -0.005 -0.002 -0.013   -0.016 -0.006 -0.032   -0.001 -0.009  0.014
 C         -0.007  0.002  0.003   -0.003  0.001  0.003    0.004  0.000  0.001
 H          0.011  0.003  0.003    0.004  0.010 -0.002   -0.014 -0.001  0.002
 O          0.001  0.000  0.000    0.001  0.000  0.000    0.000  0.000 -0.001
 H         -0.011 -0.003 -0.004   -0.003 -0.001 -0.001   -0.005  0.001 -0.002
 C          0.024  0.011  0.031    0.021  0.021 -0.024   -0.001  0.025 -0.024
 H         -0.249 -0.126 -0.427    0.249 -0.026 -0.058    0.324  0.001  0.031
 H         -0.080  0.311 -0.071   -0.069 -0.174  0.436   -0.049 -0.251  0.416
 H          0.020 -0.363  0.026   -0.392 -0.187 -0.019   -0.354 -0.101 -0.019
 C         -0.025 -0.008 -0.030   -0.032  0.002  0.020    0.017 -0.015 -0.027
 H          0.214  0.078  0.449   -0.143 -0.211  0.095    0.240  0.250  0.099
 H         -0.155  0.261  0.012    0.200 -0.034 -0.431   -0.263  0.154  0.401
 H          0.299 -0.241 -0.004    0.433  0.127  0.049   -0.274 -0.223 -0.043
 TransDip   0.000  0.000  0.000    0.000  0.000  0.000    0.000  0.000  0.000

 Mode:                34                     35                     36
 Frequency:      1485.69                2151.14                2955.25
 Force Cnst:      1.4149                 2.9085                 5.5681
 Red. Mass:       1.0880                 1.0668                 1.0821
 IR Active:          YES                    YES                    YES
 IR Intens:        0.000                  0.000                  0.000
 Raman Active:       YES                    YES                    YES
               X      Y      Z        X      Y      Z        X      Y      Z
 C         -0.053 -0.019 -0.017    0.003  0.001 -0.002    0.001  0.000 -0.080
 H          0.110  0.044 -0.019   -0.010 -0.001 -0.003   -0.004 -0.003  0.969
 C          0.038  0.002  0.001   -0.025 -0.034  0.024    0.000  0.000  0.002
 H         -0.065  0.003  0.010    0.036  0.021  0.014   -0.002 -0.007 -0.023
 H          0.005  0.017 -0.020    0.065  0.900 -0.419    0.003 -0.002 -0.003
 C         -0.023  0.003  0.000    0.016 -0.049  0.016    0.000  0.001  0.001
 H          0.049 -0.006  0.004   -0.040 -0.001 -0.038   -0.002 -0.008 -0.015
 O          0.004  0.000  0.001    0.002  0.004  0.000    0.000  0.000  0.000
 H         -0.005 -0.005 -0.002   -0.010 -0.014  0.002    0.000  0.000  0.002
 C         -0.018 -0.023 -0.016    0.000  0.000  0.000    0.000  0.000  0.012
 H          0.110  0.133  0.442   -0.001  0.001  0.000    0.004  0.006  0.000
 H          0.130 -0.238 -0.137   -0.001  0.001  0.001   -0.004 -0.005  0.001
 H          0.125  0.445 -0.019   -0.001  0.000 -0.001    0.001 -0.002 -0.143
 C         -0.021 -0.002 -0.020    0.000  0.001  0.000   -0.001 -0.003  0.013
 H          0.155  0.015  0.420    0.004  0.002  0.000   -0.018  0.016  0.010
 H         -0.100  0.252 -0.084   -0.002  0.002  0.003    0.019  0.012  0.012
 H          0.341 -0.203  0.003    0.000 -0.002 -0.001    0.012  0.004 -0.178
 TransDip   0.000  0.000  0.000    0.000  0.000  0.000    0.000  0.000  0.000

 Mode:                37                     38                     39
 Frequency:      2965.43                2975.93                3036.03
 Force Cnst:      5.3629                 5.4079                 5.9845
 Red. Mass:       1.0351                 1.0364                 1.1019
 IR Active:          YES                    YES                    YES
 IR Intens:        0.000                  0.000                  0.000
 Raman Active:       YES                    YES                    YES
               X      Y      Z        X      Y      Z        X      Y      Z
 C          0.000 -0.001 -0.010   -0.001  0.001 -0.008   -0.001  0.000 -0.007
 H          0.000  0.002  0.121    0.002 -0.001  0.100    0.001 -0.004  0.080
 C          0.000  0.000  0.000    0.000  0.000  0.001    0.000  0.000  0.001
 H          0.001 -0.002 -0.007    0.002 -0.003 -0.007    0.000 -0.001 -0.006
 H          0.000 -0.001  0.000    0.001  0.000  0.000    0.002  0.000 -0.001
 C          0.000  0.000  0.000    0.000  0.000  0.000    0.000  0.000  0.001
 H          0.000 -0.003 -0.003   -0.001 -0.001 -0.001   -0.001 -0.003 -0.006
 O          0.000  0.000  0.000    0.000  0.000  0.000    0.000  0.000  0.000
 H          0.000  0.000  0.000    0.000  0.000  0.000    0.000  0.000  0.000
 C         -0.003  0.002  0.004    0.032 -0.028 -0.027    0.008 -0.006  0.022
 H         -0.006 -0.042  0.017    0.058  0.502 -0.187    0.015  0.123 -0.038
 H          0.041  0.019  0.017   -0.423 -0.187 -0.165   -0.108 -0.050 -0.036
 H         -0.001  0.000 -0.080   -0.006  0.009  0.669    0.003 -0.003 -0.188
 C          0.009  0.044 -0.017    0.001  0.005 -0.001   -0.033 -0.023 -0.079
 H          0.419 -0.290 -0.156    0.043 -0.032 -0.015   -0.090  0.054  0.012
 H         -0.486 -0.220 -0.230   -0.047 -0.022 -0.022    0.544  0.253  0.239
 H         -0.038 -0.011  0.591   -0.003 -0.003  0.045   -0.056 -0.027  0.697
 TransDip   0.000  0.000  0.000    0.000  0.000  0.000    0.000  0.000  0.000

 Mode:                40                     41                     42
 Frequency:      3042.39                3043.99                3058.15
 Force Cnst:      6.0109                 6.0070                 6.0750
 Red. Mass:       1.1022                 1.1003                 1.1025
 IR Active:          YES                    YES                    YES
 IR Intens:        0.000                  0.000                  0.000
 Raman Active:       YES                    YES                    YES
               X      Y      Z        X      Y      Z        X      Y      Z
 C         -0.001  0.000  0.002    0.000  0.000 -0.013   -0.001 -0.001 -0.001
 H          0.000  0.001 -0.026   -0.003  0.000  0.141    0.000  0.001  0.012
 C          0.000  0.000  0.000    0.000  0.000  0.001    0.000  0.000  0.000
 H          0.000  0.003  0.006    0.002 -0.002 -0.009    0.001 -0.002 -0.001
 H          0.000 -0.003  0.000    0.000  0.001 -0.001    0.001  0.000  0.000
 C          0.000  0.000  0.000    0.000  0.000  0.000    0.000  0.000  0.001
 H          0.001 -0.002 -0.004   -0.001 -0.002 -0.004   -0.001 -0.005 -0.008
 O          0.000  0.000  0.000    0.000  0.000  0.000    0.000  0.000  0.000
 H          0.000  0.000  0.000    0.000  0.000  0.001    0.000  0.000  0.000
 C         -0.001  0.006 -0.011   -0.021  0.030 -0.079   -0.060 -0.070 -0.010
 H         -0.010 -0.092  0.031   -0.059 -0.519  0.170    0.049  0.572 -0.212
 H          0.027  0.011  0.007    0.317  0.142  0.100    0.682  0.282  0.255
 H         -0.001  0.002  0.091   -0.017  0.021  0.679   -0.015 -0.014  0.073
 C         -0.085  0.022  0.025    0.003 -0.009 -0.024   -0.003  0.000 -0.002
 H          0.639 -0.465 -0.234   -0.109  0.077  0.036    0.014 -0.010 -0.005
 H          0.385  0.194  0.195    0.089  0.040  0.035    0.030  0.017  0.014
 H          0.000  0.012 -0.264   -0.014 -0.012  0.216   -0.002  0.000  0.011
 TransDip   0.000  0.000  0.000    0.000  0.000  0.000    0.000  0.000  0.000

 Mode:                43                     44                     45
 Frequency:      3106.89                3120.44                3770.54
 Force Cnst:      6.1964                 6.2312                 8.9264
 Red. Mass:       1.0895                 1.0862                 1.0657
 IR Active:          YES                    YES                    YES
 IR Intens:        0.000                  0.000                  0.000
 Raman Active:       YES                    YES                    YES
               X      Y      Z        X      Y      Z        X      Y      Z
 C         -0.001 -0.001 -0.001    0.002  0.001 -0.003    0.000  0.000  0.000
 H          0.001  0.000  0.007    0.002  0.000  0.031    0.000  0.000 -0.002
 C          0.000  0.012  0.031   -0.006 -0.032 -0.071   -0.001  0.001  0.001
 H         -0.029 -0.152 -0.342    0.065  0.367  0.843   -0.004 -0.003 -0.003
 H          0.005  0.022 -0.013    0.004 -0.010 -0.001    0.004 -0.009  0.001
 C          0.000 -0.042 -0.068   -0.003 -0.015 -0.028    0.000  0.000 -0.003
 H          0.034  0.486  0.783    0.014  0.200  0.318    0.005  0.009  0.013
 O         -0.001  0.000  0.002    0.000  0.000  0.001    0.015  0.017 -0.058
 H          0.009  0.001 -0.016    0.007 -0.003 -0.001   -0.229 -0.275  0.931
 C          0.000  0.000  0.000    0.000  0.000  0.000    0.000  0.000  0.000
 H          0.000  0.003 -0.001    0.000  0.003 -0.002    0.000  0.000  0.000
 H          0.007  0.002  0.001    0.002  0.002  0.002    0.000  0.000  0.000
 H          0.000  0.000 -0.001   -0.003  0.001  0.006    0.000  0.000  0.000
 C         -0.001  0.000  0.000    0.000  0.000 -0.001    0.000  0.000  0.000
 H          0.005 -0.002 -0.002   -0.001  0.002  0.000    0.000  0.000  0.000
 H          0.004  0.003  0.002    0.000  0.000  0.000    0.000  0.000  0.000
 H          0.000  0.001  0.001   -0.002 -0.002  0.009    0.000  0.000  0.000
 TransDip   0.000  0.000  0.000    0.000  0.000  0.000    0.000  0.000  0.000

 STANDARD THERMODYNAMIC QUANTITIES AT   298.15 K  AND     1.00 ATM

   This Molecule has  1 Imaginary Frequencies
   Zero point vibrational energy:       90.463 kcal/mol

   Atom    1 Element C  Has Mass   12.00000
   Atom    2 Element H  Has Mass    1.00783
   Atom    3 Element C  Has Mass   12.00000
   Atom    4 Element H  Has Mass    1.00783
   Atom    5 Element H  Has Mass    1.00783
   Atom    6 Element C  Has Mass   12.00000
   Atom    7 Element H  Has Mass    1.00783
   Atom    8 Element O  Has Mass   15.99491
   Atom    9 Element H  Has Mass    1.00783
   Atom   10 Element C  Has Mass   12.00000
   Atom   11 Element H  Has Mass    1.00783
   Atom   12 Element H  Has Mass    1.00783
   Atom   13 Element H  Has Mass    1.00783
   Atom   14 Element C  Has Mass   12.00000
   Atom   15 Element H  Has Mass    1.00783
   Atom   16 Element H  Has Mass    1.00783
   Atom   17 Element H  Has Mass    1.00783
   Molecular Mass:    87.081040 amu
   Principal axes and moments of inertia in atomic units:
                             1           2           3
    Eigenvalues --      259.52488  1027.14421  1169.07961
          X               0.99999    -0.00256    -0.00224
          Y               0.00258     0.99997     0.00698
          Z               0.00223    -0.00699     0.99997
   Rotational Symmetry Number is   1
   The Molecule is an Asymmetric Top
   Translational Enthalpy:        0.889 kcal/mol
   Rotational Enthalpy:           0.889 kcal/mol
   Vibrational Enthalpy:         93.873 kcal/mol
   gas constant (RT):             0.592 kcal/mol
   Translational Entropy:        39.306  cal/mol.K
   Rotational Entropy:           27.235  cal/mol.K
   Vibrational Entropy:          20.209  cal/mol.K

   Total Enthalpy:               96.243 kcal/mol
   Total Entropy:                86.749  cal/mol.K
Archival summary:
1\1\node13\FREQ\ProcedureUnspecified\BasisUnspecified\1511(2)\edames\MonApr2105:53:522014MonApr2105:53:522014\0\\#,FREQ,ProcedureUnspecified,BasisUnspecified,\\0,2\C\H,1,1.10346\C,1,1.50914,2,108.097\H,3,1.09141,1,120.165,2,-157.374,0\H,3,1.31886,1,119.34,2,-21.6839,0\C,5,1.31216,3,68.4806,1,108.681,0\H,6,1.09032,5,110.794,3,-110.837,0\O,6,1.37436,5,120.607,3,108.079,0\H,8,0.967824,6,109.539,5,-97.0708,0\C,1,1.5314,2,108.424,3,-120.733,0\H,10,1.09688,1,111.247,2,59.5566,0\H,10,1.09735,1,111.083,2,-61.546,0\H,10,1.09971,1,110.045,2,179.175,0\C,1,1.53959,2,107.704,3,119.245,0\H,14,1.09823,1,110.921,2,-63.5569,0\H,14,1.09862,1,111.186,2,56.9813,0\H,14,1.09903,1,110.124,2,176.691,0\\\@

 Total job time:  48929.76s(wall), 48616.10s(cpu) 
 Mon Apr 21 05:53:52 2014

        *************************************************************
        *                                                           *
        *  Thank you very much for using Q-Chem.  Have a nice day.  *
        *                                                           *
        *************************************************************


0 sent ACK to 0 
now end server 0 ... 
cleanup process ... done
remove work dirs /tmp/qchem16572.0 -- /tmp/qchem16572.3
rm -rf /tmp/qchem16572.0
rm -rf /tmp/qchem16572.1
rm -rf /tmp/qchem16572.2
rm -rf /tmp/qchem16572.3rm -rf /tmp/qchem16572
