
Running Job 1 of 2 ts24.in
qchem ts24.in_14303.0 /tmp/qchem14303/ 4
/opt/qchem/bin/mpi/mpirun_qchem -machinefile /tmp/296620.1.normal1/hostfile -np 4 /opt/qchem/exe/qcprog.exe ts24.in_14303.0 /tmp/qchem14303/

Process 2 of 4 is on node29.cluster - thread support 0
Process 0 of 4 is on node29.cluster - thread support 0
Process 1 of 4 is on node29.cluster - thread support 0
Process 3 of 4 is on node29.cluster - thread support 0
initial socket setup ...start
initial socket setup ...done 
now start server 0 ... 
                  Welcome to Q-Chem
     A Quantum Leap Into The Future Of Chemistry

 Y. Shao, L. Fusti-Molnar, Y. Jung, J. Kussmann, C. Ochsenfeld, S. T. Brown, 
 A. T. B. Gilbert, L. V. Slipchenko, S. V. Levchenko, D. P. O'Neill, 
 R. A. DiStasio Jr., R. C. Lochan, T. Wang, G. J. O. Beran, N. A. Besley, 
 J. M. Herbert, C. Y. Lin, T. Van Voorhis, S. H. Chien, A. Sodt, R. P. Steele, 
 V. A. Rassolov, P. E. Maslen, P. P. Korambath, R. D. Adamson, B. Austin, 
 J. Baker, E. F. C. Byrd, H. Dachsel, R. J. Doerksen, A. Dreuw, B. D. Dunietz, 
 A. D. Dutoi, T. R. Furlani, S. R. Gwaltney, A. Heyden, S. Hirata, C.-P. Hsu, 
 G. Kedziora, R. Z. Khaliullin, P. Klunzinger, A. M. Lee, M. S. Lee, W. Liang, 
 I. Lotan, N. Nair, B. Peters, E. I. Proynov, P. A. Pieniazek, Y. M. Rhee, 
 J. Ritchie, E. Rosta, C. D. Sherrill, A. C. Simmonett, J. E. Subotnik, 
 H. L. Woodcock III, W. Zhang, A. T. Bell, A. K. Chakraborty, D. M. Chipman, 
 F. J. Keil, A. Warshel, W. J. Hehre, H. F. Schaefer III, J. Kong, 
 A. I. Krylov, P. M. W. Gill, M. Head-Gordon

 Additional authors for Version 3.1: 
 Z. Gan, Y. Zhao, N. E. SchultzD. Truhlar, E. Epifanovsky, M. Oana

 Additional authors for Version 3.2: 
 R. Baer, B. R. Brooks, D. Casanova, J.-D. Chai, C.-L. Cheng, C. Cramer, 
 D. Crittenden, A. Ghysels, G. Hawkins, E. G. Hohenstein, C. Kelley, 
 W. Kurlancheek, D. Liotard, E. Livshits, P. Manohar, A. Marenich, 
 D. Neuhauser, R. Olson, M. A. Rohrdanz, K. S. Thanthiriwatte, A. J. W. Thom, 
 V. Vanovschi, C. F. Williams, Q. Wu, Z.-Q. You

 Additional authors for Version 4.0: 
 A. Aspuru-Guzik, Y. Bernard, C. Chang, J. Deng, A. Dreuw, M. Diedenhofen, 
 R. G. Edgar, D. Ghosh, W. A. Goddard III, M. Goldey, L. D. Jacobson, 
 M. Gordon, B. Kaduk, I. Kaliman, K. Khistyaev, R. King, A. Klamt, 
 D. Kosenkov, T. Kus, D. Lambrecht, A. Landau, A. W. Lange, K. Lawler, F. Liu, 
 J. Liu, R. Olivares-Amaya, S. P. Mao, J. Parkhill, N. Russ, M. Schmidt, 
 N. Shenvi, D. Small, Y. C. Su, E. Sundstrom, L. Vogt, O. Vydrov, M. Watson, 
 M. Wormit, X. Xu, S. Yeganeh, I. Y. Zhang, D. Zuev

 Additional authors for Version 4.1: 
 X. Feng, M. W. D. Hanson-Heine, P. Horn, H. Ji, A. Laurent, R. Peverati, 
 N. Mardirossian, N. Sergueev, S. Sharada, P. Zimmerman


 Q-Chem, Version 4.1, Q-Chem, Inc., Pittsburgh, PA (2013).

 Intel X86 Linux Version 4.1.0.1 

 Q-chem begins on Sun Apr 20 14:53:58 2014  

Host: 
0

     Scratch files written to /tmp/qchem14303.0//
 Oct1213 14483_epif 4150   
 Parallel job on  4  processors
Processing $rem in /opt/qchem/config/preferences.
 MEM_TOTAL  2000 
Warning: disabling incdft.
 Q-Chem warning in module /home/scratch/svnadmin/14483_epif/qchem/forms1/BasisType.C, line 1125:

 Setting pure/cartesian flag to 2111 for general basis


Finally everything over in PARseQInput

--------------------------------------------------------------
User input:
--------------------------------------------------------------
$rem
XC_GRID 000075000434
JOBTYPE ts
EXCHANGE M08SO
BASIS gen
GUI=2
UNRESTRICTED TRUE
CORRELATION NONE
$end

$comment
c5h11o-2
$end

$molecule
0 2
C
H  1 1.427305
C  2 1.403886 1 103.596149
H  3 1.091538 2 104.859644 1 106.758150 0
O  3 1.383734 2 121.334078 1 -121.366340 0
H  5 0.959564 3 109.618826 2 -79.365380 0
C  1 1.503480 2 111.171042 3 122.274941 0
H  7 1.089354 1 111.367760 2 81.943317 0
H  7 1.091010 1 111.178410 2 -39.008188 0
H  7 1.096726 1 110.748581 2 -158.180768 0
C  1 1.504205 2 110.189786 3 -106.708438 0
H  11 1.089918 1 111.495598 2 -77.820740 0
H  11 1.091212 1 111.720473 2 43.435860 0
H  11 1.097085 1 110.636188 2 162.644058 0
C  3 1.515526 2 81.460598 1 -7.632971 0
H  15 1.089076 3 115.820754 2 127.698651 0
H  15 1.089378 3 109.685645 2 -108.426575 0
$end

$basis
H  0
S  3 1.00
3.386500000000E+01 2.549380000000E-02
5.094790000000E+00 1.903730000000E-01
1.158790000000E+00 8.521610000000E-01
S  1 1.00
3.258400000000E-01 1.000000000000E+00
S  1 1.00
1.027410000000E-01 1.000000000000E+00
S  1 1.00
3.600000000000E-02 1.000000000000E+00
P  1 1.00
1.500000000000E+00 1.000000000000E+00
P  1 1.00
3.750000000000E-01 1.000000000000E+00
****
C 0
S  6 1.00
4.563240000000E+03 1.966650000000E-03
6.820240000000E+02 1.523060000000E-02
1.549730000000E+02 7.612690000000E-02
4.445530000000E+01 2.608010000000E-01
1.302900000000E+01 6.164620000000E-01
1.827730000000E+00 2.210060000000E-01
S  3 1.00
2.096420000000E+01 1.146600000000E-01
4.803310000000E+00 9.199990000000E-01
1.459330000000E+00 -3.030680000000E-03
S  1 1.00
4.834560000000E-01 1.000000000000E+00
S  1 1.00
1.455850000000E-01 1.000000000000E+00
S  1 1.00
4.380000000000E-02 1.000000000000E+00
P  3 1.00
2.096420000000E+01 4.024870000000E-02
4.803310000000E+00 2.375940000000E-01
1.459330000000E+00 8.158540000000E-01
P  1 1.00
4.834560000000E-01 1.000000000000E+00
P  1 1.00
1.455850000000E-01 1.000000000000E+00
P  1 1.00
4.380000000000E-02 1.000000000000E+00
D  1 1.00
1.252000000000E+00 1.000000000000E+00
D  1 1.00
3.130000000000E-01 1.000000000000E+00
F  1 1.00
8.000000000000E-01 1.000000000000E+00
****
O  0
S  6 1.00
8.588500000000E+03 1.895150000000E-03
1.297230000000E+03 1.438590000000E-02
2.992960000000E+02 7.073200000000E-02
8.737710000000E+01 2.400010000000E-01
2.567890000000E+01 5.947970000000E-01
3.740040000000E+00 2.808020000000E-01
S  3 1.00
4.211750000000E+01 1.138890000000E-01
9.628370000000E+00 9.208110000000E-01
2.853320000000E+00 -3.274470000000E-03
S  1 1.00
9.056610000000E-01 1.000000000000E+00
S  1 1.00
2.556110000000E-01 1.000000000000E+00
S  1 1.00
8.450000000000E-02 1.000000000000E+00
P  3 1.00
4.211750000000E+01 3.651140000000E-02
9.628370000000E+00 2.371530000000E-01
2.853320000000E+00 8.197020000000E-01
P  1 1.00
9.056610000000E-01 1.000000000000E+00
P  1 1.00
2.556110000000E-01 1.000000000000E+00
P  1 1.00
8.450000000000E-02 1.000000000000E+00
D  1 1.00
2.584000000000E+00 1.000000000000E+00
D  1 1.00
6.460000000000E-01 1.000000000000E+00
F  1 1.00
1.400000000000E+00 1.000000000000E+00
****
$end

--------------------------------------------------------------
 ----------------------------------------------------
       Standard Nuclear Orientation (Angstroms)
    I     Atom         X            Y            Z
 ----------------------------------------------------
    1      C      -0.837817     0.036599    -0.072523
    2      H       0.233495    -0.096482    -1.006214
    3      C       1.325988    -0.464028    -0.204800
    4      H       1.488158    -1.521668    -0.420564
    5      O       2.478328     0.300951    -0.164309
    6      H       3.015424     0.115600    -0.937572
    7      C      -1.435077     1.415386    -0.124290
    8      H      -2.149840     1.507901    -0.941142
    9      H      -0.662832     2.174769    -0.255728
   10      H      -1.962765     1.645523     0.809193
   11      C      -1.791067    -1.119086    -0.207949
   12      H      -2.444887    -0.998407    -1.071590
   13      H      -1.262834    -2.068495    -0.309617
   14      H      -2.430150    -1.199269     0.680161
   15      C       0.329320    -0.164656     0.896947
   16      H       0.192176    -0.950095     1.638813
   17      H       0.609354     0.757727     1.404426
 ----------------------------------------------------
 Molecular Point Group                 C1    NOp =  1
 Largest Abelian Subgroup              C1    NOp =  1
 Nuclear Repulsion Energy =   248.0552013317 hartrees
 There are       25 alpha and       24 beta electrons
 Requested basis set is non-standard
 There are 138 shells and 314 basis functions

Total QAlloc Memory Limit   2000 MB
Mega-Array Size        61 MB
MEM_STATIC part        62 MB
 A cutoff of  1.0D-11 yielded   8983 shell pairs
 There are     46303 function pairs (     55636 Cartesian)
 Smallest overlap matrix eigenvalue = 1.84E-05

  Scale SEOQF with 1.000000e-01/1.000000e-01/1.000000e-01

 Standard Electronic Orientation quadrupole field applied
 Nucleus-field energy     =     0.0000000060 hartrees
 Guess MOs from core Hamiltonian diagonalization
 An unrestricted hybrid HF-DFT SCF calculation will be
 performed using Pulay DIIS extrapolation
 Exchange:     0.5679 Hartree-Fock + 1.0000 M08SO
 SCF converges when DIIS error is below 1.0E-08
 ---------------------------------------
  Cycle       Energy         DIIS Error
 ---------------------------------------
    1    -186.2458881713      9.24E-02
    2    -169.8739074514      4.84E-02
    3    -168.8320749949      6.80E-02
    4    -231.3387698283      3.93E-02
    5    -264.4122229739      2.31E-02
    6    -268.0168758488      1.54E-02
    7    -271.8776446038      4.32E-03
    8    -272.1085290133      1.45E-03
    9    -272.1353890036      6.40E-04
   10    -272.1411409996      2.68E-04
   11    -272.1423259000      1.19E-04
   12    -272.1425796289      3.70E-05
   13    -272.1426126614      6.53E-06
   14    -272.1426183516      2.81E-06
   15    -272.1426197627      1.23E-06
   16    -272.1426199926      5.36E-07
   17    -272.1426200234      2.33E-07
   18    -272.1426200296      6.70E-08
   19    -272.1426200303      2.52E-08
   20    -272.1426200303      1.31E-08
   21    -272.1426200300      2.62E-09 Convergence criterion met
 ---------------------------------------
 <S^2> = 0.7622
 SCF time:  CPU 1414.26 s  wall 1427.38 s
 SCF   energy in the final basis set = -272.1426200300
 Total energy in the final basis set = -272.1426200300
 Analysis of SCF Wavefunction
 
 --------------------------------------------------------------
                    Orbital Energies (a.u.)
 --------------------------------------------------------------
 
 Alpha MOs
 -- Occupied --
-19.583 -10.551 -10.507 -10.486 -10.485 -10.482  -1.159  -0.926
 -0.827  -0.784  -0.699  -0.646  -0.608  -0.558  -0.518  -0.510
 -0.488  -0.486  -0.461  -0.437  -0.421  -0.405  -0.384  -0.353
 -0.204
 -- Virtual --
 -0.027  -0.015  -0.008  -0.005   0.013   0.018   0.020   0.024
  0.027   0.046   0.057   0.062   0.067   0.076   0.084   0.091
  0.099   0.111   0.120   0.124   0.130   0.134   0.138   0.140
  0.149   0.151   0.157   0.163   0.172   0.177   0.186   0.195
  0.201   0.205   0.216   0.220   0.242   0.245   0.257   0.268
  0.291   0.295   0.298   0.309   0.323   0.329   0.339   0.356
  0.366   0.378   0.401   0.431   0.443   0.464   0.471   0.501
  0.509   0.516   0.529   0.538   0.550   0.564   0.568   0.571
  0.579   0.585   0.589   0.598   0.615   0.621   0.636   0.639
  0.643   0.659   0.671   0.692   0.708   0.713   0.725   0.733
  0.754   0.769   0.800   0.837   0.848   0.856   0.883   0.927
  0.931   0.949   0.980   0.991   0.991   1.018   1.033   1.055
  1.060   1.090   1.094   1.111   1.138   1.146   1.154   1.174
  1.184   1.209   1.220   1.231   1.242   1.258   1.270   1.283
  1.294   1.305   1.314   1.320   1.342   1.347   1.355   1.379
  1.388   1.398   1.411   1.418   1.424   1.448   1.465   1.484
  1.490   1.507   1.518   1.546   1.551   1.568   1.578   1.592
  1.617   1.633   1.650   1.688   1.694   1.731   1.758   1.809
  1.932   2.079   2.127   2.251   2.307   2.377   2.442   2.452
  2.499   2.512   2.539   2.589   2.660   2.684   2.696   2.703
  2.736   2.755   2.783   2.807   2.850   2.877   2.912   2.937
  2.942   2.962   2.974   2.981   3.005   3.028   3.038   3.060
  3.080   3.099   3.142   3.161   3.169   3.188   3.202   3.234
  3.241   3.253   3.291   3.304   3.320   3.335   3.360   3.369
  3.382   3.421   3.431   3.447   3.466   3.485   3.518   3.544
  3.576   3.583   3.615   3.634   3.656   3.670   3.696   3.712
  3.731   3.742   3.762   3.764   3.793   3.816   3.865   3.885
  3.893   3.897   3.932   3.961   3.981   3.995   4.018   4.054
  4.057   4.071   4.103   4.112   4.136   4.145   4.163   4.174
  4.180   4.193   4.211   4.238   4.268   4.324   4.339   4.361
  4.388   4.409   4.415   4.444   4.457   4.464   4.484   4.532
  4.551   4.577   4.586   4.606   4.658   4.725   4.769   4.794
  4.822   4.888   5.032   5.146   5.158   5.209   5.235   5.344
  5.415   5.442   5.500   5.530   5.569   5.621   5.638   5.668
  5.675   5.702   5.780   5.956   6.534   6.933   7.129   7.147
  7.199   7.485   7.609  23.972  24.123  24.236  24.270  24.314
 49.805
 
 Beta MOs
 -- Occupied --
-19.580 -10.540 -10.495 -10.487 -10.485 -10.483  -1.152  -0.919
 -0.822  -0.783  -0.692  -0.634  -0.601  -0.544  -0.510  -0.506
 -0.478  -0.471  -0.455  -0.435  -0.415  -0.406  -0.384  -0.333
 -- Virtual --
 -0.031  -0.023  -0.012  -0.008   0.001   0.006   0.014   0.019
  0.023   0.024   0.041   0.054   0.060   0.064   0.073   0.082
  0.089   0.097   0.109   0.117   0.122   0.129   0.131   0.137
  0.139   0.147   0.151   0.156   0.162   0.172   0.180   0.188
  0.197   0.202   0.210   0.218   0.222   0.243   0.245   0.260
  0.273   0.295   0.297   0.298   0.314   0.324   0.336   0.342
  0.361   0.376   0.386   0.405   0.432   0.445   0.463   0.474
  0.505   0.510   0.519   0.533   0.541   0.556   0.571   0.572
  0.573   0.584   0.587   0.595   0.605   0.623   0.629   0.647
  0.650   0.657   0.669   0.674   0.702   0.709   0.715   0.728
  0.737   0.763   0.778   0.804   0.840   0.852   0.861   0.887
  0.930   0.935   0.955   0.985   0.994   0.996   1.022   1.037
  1.059   1.064   1.092   1.101   1.115   1.142   1.151   1.159
  1.177   1.193   1.217   1.225   1.238   1.251   1.264   1.281
  1.289   1.305   1.313   1.327   1.333   1.352   1.356   1.361
  1.390   1.397   1.405   1.414   1.427   1.430   1.452   1.471
  1.490   1.496   1.513   1.530   1.552   1.556   1.572   1.582
  1.594   1.626   1.641   1.659   1.700   1.705   1.741   1.774
  1.820   1.939   2.088   2.136   2.253   2.312   2.385   2.455
  2.461   2.512   2.532   2.555   2.602   2.671   2.710   2.716
  2.719   2.811   2.818   2.837   2.841   2.899   2.911   2.919
  2.942   2.962   2.978   2.992   3.006   3.041   3.055   3.069
  3.077   3.108   3.138   3.148   3.181   3.194   3.198   3.221
  3.245   3.257   3.281   3.307   3.317   3.328   3.351   3.373
  3.377   3.416   3.442   3.460   3.471   3.500   3.515   3.547
  3.560   3.585   3.604   3.641   3.669   3.679   3.689   3.716
  3.725   3.754   3.760   3.782   3.796   3.814   3.829   3.890
  3.898   3.908   3.920   3.950   3.978   3.998   4.001   4.037
  4.039   4.071   4.088   4.106   4.129   4.157   4.160   4.169
  4.185   4.191   4.209   4.214   4.259   4.294   4.339   4.354
  4.368   4.399   4.416   4.426   4.466   4.488   4.509   4.518
  4.559   4.570   4.594   4.611   4.628   4.697   4.725   4.829
  4.869   4.896   4.946   5.087   5.157   5.175   5.226   5.274
  5.372   5.466   5.523   5.539   5.545   5.595   5.622   5.641
  5.670   5.678   5.705   5.779   5.955   6.535   6.934   7.131
  7.151   7.201   7.482   7.599  23.980  24.130  24.239  24.279
 24.328  49.807
 --------------------------------------------------------------
 
          Ground-State Mulliken Net Atomic Charges

     Atom                 Charge (a.u.)    Spin (a.u.)
  --------------------------------------------------------
      1 C                     0.557312       0.547975
      2 H                     0.143964      -0.105375
      3 C                    -0.403127       0.512552
      4 H                     0.213222       0.007323
      5 O                    -0.283479       0.042805
      6 H                     0.285954      -0.003164
      7 C                    -0.778142      -0.032086
      8 H                     0.191107       0.000039
      9 H                     0.209663       0.009617
     10 H                     0.198186       0.036681
     11 C                    -0.835595      -0.027007
     12 H                     0.196547       0.000494
     13 H                     0.190030       0.004817
     14 H                     0.197799       0.043098
     15 C                    -0.584124      -0.034304
     16 H                     0.217516      -0.004275
     17 H                     0.283169       0.000811
  --------------------------------------------------------
  Sum of atomic charges =     0.000000
  Sum of spin   charges =     1.000000

 -----------------------------------------------------------------
                    Cartesian Multipole Moments
 -----------------------------------------------------------------
    Charge (ESU x 10^10)
                 0.0000
    Dipole Moment (Debye)
         X      -0.0947      Y      -0.8824      Z      -0.8135
       Tot       1.2038
    Quadrupole Moments (Debye-Ang)
        XX     -39.1333     XY      -2.1108     YY     -40.2469
        XZ      -4.0690     YZ       0.1180     ZZ     -39.5173
    Octapole Moments (Debye-Ang^2)
       XXX      20.8287    XXY      -3.8240    XYY       4.5121
       YYY      -0.4828    XXZ     -16.0690    XYZ       0.5063
       YYZ      -0.0922    XZZ       7.1248    YZZ       0.8769
       ZZZ      -0.7163
    Hexadecapole Moments (Debye-Ang^3)
      XXXX    -610.1830   XXXY      -7.2314   XXYY    -157.3707
      XYYY       1.1856   YYYY    -256.5231   XXXZ     -49.3690
      XXYZ      -0.6050   XYYZ      -1.4864   YYYZ       0.4705
      XXZZ    -110.5685   XYZZ       1.2395   YYZZ     -62.9300
      XZZZ      -7.5219   YZZZ      -1.4089   ZZZZ    -122.8021
 -----------------------------------------------------------------
 Calculating analytic gradient of the SCF energy
 Gradient of Coulomb and Exchange Energy
            1           2           3           4           5           6
    1   1.2036875  -0.0172094  -1.7570744  -0.9519050  -8.4633053  -3.4556255
    2  -2.0688674   0.2818592   2.2242537   4.4633087  -5.3175405   0.4277574
    3  -0.2845837   2.2051376  -0.7461836   1.3847445  -1.8474818   3.4555859
            7           8           9          10          11          12
    1   2.8660390   2.7392345  -2.1564752   2.0276990   3.4752314   2.7801355
    2  -2.5175462  -1.0410490  -3.2775720  -1.4877551   2.1374944   0.1382674
    3   1.2822128   2.6396967   0.4004934  -2.9532703   1.1632555   2.8856718
           13          14          15          16          17
    1  -1.0714766   2.6366965   1.1162344   0.4524509  -1.4243372
    2   3.6770666   0.8520599   2.0709100   3.2950564  -3.8577036
    3   0.3306179  -2.6653250  -1.1408912  -3.3739874  -2.7356930
 Gradient of SCF Energy
            1           2           3           4           5           6
    1   0.0032589  -0.0028660   0.0002668  -0.0006911  -0.0004148  -0.0028263
    2  -0.0002690   0.0000821  -0.0012705   0.0043772  -0.0014554  -0.0000365
    3  -0.0028866   0.0026798   0.0003130   0.0010033  -0.0013108   0.0024834
            7           8           9          10          11          12
    1  -0.0013183   0.0033427  -0.0033186   0.0025072  -0.0013539   0.0029159
    2   0.0018775  -0.0006506  -0.0035836  -0.0009814  -0.0018016  -0.0004314
    3   0.0001793   0.0040355   0.0003593  -0.0040020   0.0000649   0.0040431
           13          14          15          16          17
    1  -0.0026852   0.0027888   0.0010281   0.0005630  -0.0011971
    2   0.0043007   0.0004569  -0.0000052   0.0037984  -0.0044076
    3   0.0005167  -0.0039812   0.0024972  -0.0034813  -0.0025139
 Max gradient component =       4.408E-03
 RMS gradient           =       2.412E-03
 Gradient time:  CPU 98.52 s  wall 98.79 s
 Geometry Optimization Parameters
   NAtoms,    NIC,     NZ,  NCons,   NDum,   NFix, NCnnct, MaxDiis
       17     128      17       0       0       0       0       0


** GEOMETRY OPTIMIZATION IN DELOCALIZED INTERNAL COORDINATES **
   Searching for a Transition State

   Optimization Cycle:   1

                       Coordinates (Angstroms)
     ATOM              X           Y           Z
      1  C        -0.837817    0.036599   -0.072523
      2  H         0.233495   -0.096482   -1.006214
      3  C         1.325988   -0.464028   -0.204800
      4  H         1.488158   -1.521668   -0.420564
      5  O         2.478328    0.300951   -0.164309
      6  H         3.015424    0.115600   -0.937572
      7  C        -1.435077    1.415386   -0.124290
      8  H        -2.149840    1.507901   -0.941142
      9  H        -0.662832    2.174769   -0.255728
     10  H        -1.962765    1.645523    0.809193
     11  C        -1.791067   -1.119086   -0.207949
     12  H        -2.444887   -0.998407   -1.071590
     13  H        -1.262834   -2.068495   -0.309617
     14  H        -2.430150   -1.199269    0.680161
     15  C         0.329320   -0.164656    0.896947
     16  H         0.192176   -0.950095    1.638813
     17  H         0.609354    0.757727    1.404426
   Point Group: c1    Number of degrees of freedom:    45


   Energy is   -272.142620030


 Attempting to Generate Delocalized Internal Coordinates
 GETINT wrote B to file, NVib is           45
 calling HSSCONV
 HCONV 3*NATOMS:           51
 wrote HINT to file
  writing hessian 

 45 Hessian modes will be used to form the next step
  Hessian Eigenvalues:
     0.005025    0.008623    0.008718    0.017797    0.022851    0.031021
     0.035264    0.041814    0.054915    0.057259    0.057768    0.057906
     0.058829    0.058979    0.064617    0.078576    0.085867    0.094359
     0.100064    0.123536    0.142758    0.155139    0.160000    0.160000
     0.160000    0.160000    0.160000    0.160000    0.160000    0.176401
     0.268088    0.285407    0.319401    0.320149    0.340065    0.340468
     0.346355    0.346730    0.346962    0.348221    0.348846    0.348874
     0.349196    0.484260    0.555673
**WARNING** Hessian does not have the Desired Local Structure

 Transition State Search - Taking P-RFO Step
 Searching for Lamda that Maximizes Along the Lowest mode
 Value Taken    Lamda =   0.00504833
 Searching for Lamda that Minimizes Along All other modes
 Value Taken    Lamda =  -0.00107080
 Calculated Step too Large.  Step scaled by  0.020566
 Step Taken.  Stepsize is  0.300000

                             Maximum     Tolerance    Cnvgd?
         Gradient           0.010702      0.000300      NO
         Displacement       0.109547      0.001200      NO
         Energy change     *********      0.000001      NO


 New Cartesian Coordinates Obtained by Inverse Iteration

 Displacement from previous Coordinates is:  0.444966
 ----------------------------------------------------
       Standard Nuclear Orientation (Angstroms)
    I     Atom         X            Y            Z
 ----------------------------------------------------
    1      C      -0.838527     0.016172    -0.073738
    2      H       0.225029    -0.156679    -1.010174
    3      C       1.335262    -0.452756    -0.203481
    4      H       1.557428    -1.501002    -0.412258
    5      O       2.443139     0.375665    -0.167890
    6      H       2.990840     0.214977    -0.939318
    7      C      -1.400210     1.409273    -0.141547
    8      H      -2.114477     1.510023    -0.958077
    9      H      -0.608886     2.146905    -0.284174
   10      H      -1.919565     1.664633     0.790229
   11      C      -1.822486    -1.115494    -0.192487
   12      H      -2.475110    -0.988403    -1.056310
   13      H      -1.319725    -2.079898    -0.283302
   14      H      -2.461335    -1.167556     0.698074
   15      C       0.324107    -0.201836     0.897514
   16      H       0.192842    -1.010595     1.615229
   17      H       0.586646     0.708841     1.434950
 ----------------------------------------------------
 Molecular Point Group                 C1    NOp =  1
 Largest Abelian Subgroup              C1    NOp =  1
 Nuclear Repulsion Energy =   248.1957594691 hartrees
 There are       25 alpha and       24 beta electrons
 Applying Cartesian multipole field
    Component          Value
    ---------          -----
     (2,0,0)        1.00000E-11
     (0,2,0)        2.00000E-11
     (0,0,2)       -3.00000E-11
 Nucleus-field energy     =     0.0000000059 hartrees
 Requested basis set is non-standard
 There are 138 shells and 314 basis functions
 A cutoff of  1.0D-11 yielded   8982 shell pairs
 There are     46330 function pairs (     55672 Cartesian)
 Smallest overlap matrix eigenvalue = 1.87E-05
 Guess MOs from SCF MO coefficient file
Reading MOs from coefficient file
Reading MOs from coefficient file
 An unrestricted hybrid HF-DFT SCF calculation will be
 performed using Pulay DIIS extrapolation
 Exchange:     0.5679 Hartree-Fock + 1.0000 M08SO
 SCF converges when DIIS error is below 1.0E-08
Geometry optimization detected.  Setting ReadMinima to 0
Setting SaveMinima to 0
 Inaccurate integrated density:
   Number of electrons =    49
   Numerical integral  =    48.977480259143
   Relative error      =    -0.0459586548 %
 ---------------------------------------
  Cycle       Energy         DIIS Error
 ---------------------------------------
    1    -272.1280042103      7.19E-04
    2    -272.1421825006      1.06E-04
    3    -272.1423276069      8.13E-05
    4    -272.1424133726      1.85E-05
    5    -272.1424194372      7.18E-06
    6    -272.1424203624      2.61E-06
    7    -272.1424205191      6.09E-07
    8    -272.1424205504      3.66E-07
    9    -272.1424205571      1.40E-07
   10    -272.1424205581      4.51E-08
   11    -272.1424205585      1.67E-08
   12    -272.1424205591      5.23E-09 Convergence criterion met
 ---------------------------------------
 <S^2> = 0.7622
 SCF time:  CPU 805.48 s  wall 813.68 s
 SCF   energy in the final basis set = -272.1424205591
 Total energy in the final basis set = -272.1424205591
 Analysis of SCF Wavefunction
 
 --------------------------------------------------------------
                    Orbital Energies (a.u.)
 --------------------------------------------------------------
 
 Alpha MOs
 -- Occupied --
-19.583 -10.551 -10.507 -10.486 -10.484 -10.482  -1.160  -0.925
 -0.827  -0.784  -0.699  -0.646  -0.608  -0.557  -0.518  -0.510
 -0.488  -0.485  -0.460  -0.437  -0.420  -0.405  -0.384  -0.353
 -0.204
 -- Virtual --
 -0.027  -0.015  -0.008  -0.005   0.012   0.018   0.020   0.025
  0.026   0.046   0.057   0.062   0.068   0.076   0.083   0.091
  0.098   0.112   0.120   0.124   0.129   0.134   0.138   0.140
  0.149   0.151   0.157   0.163   0.173   0.177   0.186   0.195
  0.201   0.206   0.216   0.220   0.242   0.244   0.257   0.271
  0.292   0.295   0.298   0.307   0.322   0.329   0.340   0.357
  0.365   0.376   0.400   0.432   0.444   0.465   0.471   0.500
  0.510   0.518   0.530   0.538   0.552   0.564   0.569   0.570
  0.578   0.586   0.591   0.599   0.613   0.622   0.635   0.638
  0.643   0.658   0.674   0.691   0.705   0.712   0.723   0.735
  0.758   0.770   0.800   0.834   0.848   0.858   0.885   0.929
  0.934   0.952   0.982   0.988   0.994   1.016   1.031   1.053
  1.058   1.095   1.098   1.108   1.141   1.144   1.152   1.173
  1.183   1.208   1.215   1.231   1.242   1.260   1.271   1.285
  1.294   1.305   1.317   1.322   1.338   1.347   1.356   1.379
  1.390   1.402   1.411   1.417   1.423   1.452   1.465   1.483
  1.490   1.506   1.523   1.547   1.551   1.572   1.581   1.591
  1.619   1.631   1.643   1.688   1.697   1.732   1.753   1.802
  1.931   2.071   2.129   2.249   2.304   2.378   2.441   2.451
  2.502   2.508   2.537   2.591   2.662   2.683   2.697   2.704
  2.735   2.755   2.782   2.806   2.851   2.875   2.912   2.941
  2.946   2.962   2.979   2.982   3.006   3.022   3.037   3.059
  3.082   3.104   3.147   3.157   3.168   3.184   3.199   3.234
  3.243   3.255   3.291   3.300   3.324   3.337   3.360   3.370
  3.385   3.425   3.426   3.449   3.460   3.485   3.517   3.546
  3.576   3.576   3.615   3.631   3.653   3.664   3.698   3.712
  3.731   3.739   3.763   3.770   3.796   3.815   3.866   3.886
  3.895   3.896   3.933   3.964   3.979   3.997   4.025   4.055
  4.060   4.079   4.101   4.109   4.134   4.141   4.164   4.174
  4.181   4.191   4.209   4.239   4.267   4.325   4.340   4.362
  4.388   4.405   4.413   4.441   4.461   4.465   4.487   4.537
  4.548   4.573   4.585   4.607   4.664   4.722   4.769   4.792
  4.819   4.885   5.034   5.146   5.157   5.208   5.232   5.339
  5.413   5.439   5.499   5.530   5.572   5.617   5.637   5.667
  5.673   5.703   5.779   5.954   6.534   6.933   7.128   7.145
  7.197   7.486   7.607  23.970  24.122  24.233  24.268  24.315
 49.804
 
 Beta MOs
 -- Occupied --
-19.580 -10.539 -10.495 -10.487 -10.485 -10.482  -1.152  -0.918
 -0.821  -0.782  -0.692  -0.633  -0.601  -0.544  -0.510  -0.505
 -0.479  -0.470  -0.454  -0.435  -0.415  -0.406  -0.383  -0.333
 -- Virtual --
 -0.031  -0.023  -0.013  -0.008   0.000   0.006   0.015   0.019
  0.023   0.024   0.041   0.054   0.059   0.064   0.072   0.082
  0.089   0.096   0.110   0.117   0.123   0.129   0.131   0.137
  0.139   0.147   0.151   0.155   0.161   0.172   0.181   0.187
  0.198   0.201   0.211   0.217   0.223   0.242   0.245   0.260
  0.275   0.296   0.297   0.298   0.312   0.324   0.336   0.344
  0.363   0.374   0.384   0.404   0.433   0.446   0.465   0.475
  0.505   0.510   0.521   0.535   0.541   0.557   0.570   0.573
  0.574   0.584   0.587   0.598   0.605   0.621   0.629   0.646
  0.649   0.656   0.668   0.676   0.700   0.707   0.713   0.727
  0.739   0.766   0.779   0.803   0.837   0.851   0.864   0.889
  0.931   0.938   0.957   0.986   0.993   0.998   1.020   1.035
  1.056   1.061   1.098   1.105   1.112   1.146   1.148   1.156
  1.176   1.191   1.216   1.224   1.236   1.250   1.267   1.281
  1.291   1.305   1.314   1.328   1.337   1.348   1.356   1.361
  1.390   1.398   1.407   1.414   1.427   1.430   1.455   1.470
  1.488   1.498   1.512   1.535   1.551   1.558   1.575   1.586
  1.594   1.629   1.640   1.653   1.697   1.709   1.743   1.770
  1.812   1.938   2.080   2.138   2.252   2.309   2.386   2.455
  2.460   2.515   2.528   2.553   2.603   2.673   2.712   2.715
  2.719   2.810   2.818   2.836   2.841   2.896   2.910   2.919
  2.942   2.965   2.977   2.995   3.011   3.041   3.056   3.067
  3.075   3.109   3.142   3.151   3.179   3.190   3.194   3.218
  3.247   3.257   3.283   3.306   3.313   3.331   3.353   3.371
  3.380   3.419   3.439   3.457   3.473   3.495   3.517   3.546
  3.561   3.584   3.598   3.637   3.666   3.675   3.686   3.716
  3.724   3.755   3.757   3.783   3.799   3.818   3.827   3.890
  3.898   3.913   3.916   3.954   3.980   3.993   4.006   4.039
  4.045   4.071   4.097   4.106   4.126   4.152   4.157   4.172
  4.184   4.192   4.207   4.210   4.260   4.293   4.340   4.354
  4.370   4.399   4.414   4.422   4.464   4.484   4.514   4.525
  4.566   4.570   4.592   4.602   4.635   4.700   4.717   4.828
  4.869   4.894   4.943   5.090   5.157   5.174   5.224   5.272
  5.365   5.464   5.520   5.540   5.544   5.598   5.619   5.641
  5.669   5.677   5.707   5.779   5.954   6.535   6.934   7.129
  7.150   7.199   7.483   7.598  23.978  24.128  24.237  24.277
 24.328  49.807
 --------------------------------------------------------------
 
          Ground-State Mulliken Net Atomic Charges

     Atom                 Charge (a.u.)    Spin (a.u.)
  --------------------------------------------------------
      1 C                     0.559173       0.545708
      2 H                     0.142253      -0.104203
      3 C                    -0.400217       0.511801
      4 H                     0.214877       0.009037
      5 O                    -0.281710       0.041929
      6 H                     0.286132      -0.003117
      7 C                    -0.785578      -0.031093
      8 H                     0.191737       0.000073
      9 H                     0.211302       0.009667
     10 H                     0.199900       0.035856
     11 C                    -0.837828      -0.027574
     12 H                     0.195879       0.000267
     13 H                     0.190282       0.005318
     14 H                     0.195897       0.043732
     15 C                    -0.589150      -0.033995
     16 H                     0.227232      -0.003737
     17 H                     0.279821       0.000332
  --------------------------------------------------------
  Sum of atomic charges =     0.000000
  Sum of spin   charges =     1.000000

 -----------------------------------------------------------------
                    Cartesian Multipole Moments
 -----------------------------------------------------------------
    Charge (ESU x 10^10)
                 0.0000
    Dipole Moment (Debye)
         X      -0.0298      Y      -0.8743      Z      -0.8030
       Tot       1.1875
    Quadrupole Moments (Debye-Ang)
        XX     -38.9091     XY      -2.0486     YY     -40.3756
        XZ      -4.0497     YZ      -0.0770     ZZ     -39.5047
    Octapole Moments (Debye-Ang^2)
       XXX      22.1291    XXY      -3.2668    XYY       4.4232
       YYY      -1.0374    XXZ     -15.8997    XYZ      -0.0440
       YYZ      -0.0363    XZZ       7.2458    YZZ       0.9776
       ZZZ      -0.6463
    Hexadecapole Moments (Debye-Ang^3)
      XXXX    -604.9788   XXXY     -10.6579   XXYY    -156.9126
      XYYY      -4.4664   YYYY    -257.4863   XXXZ     -48.2804
      XXYZ      -1.4052   XYYZ      -1.5847   YYYZ       2.3878
      XXZZ    -110.1528   XYZZ      -0.1542   YYZZ     -62.9490
      XZZZ      -7.3047   YZZZ       0.5742   ZZZZ    -122.8297
 -----------------------------------------------------------------
 Calculating analytic gradient of the SCF energy
 Gradient of Coulomb and Exchange Energy
            1           2           3           4           5           6
    1   1.1791176  -0.0368953  -1.7791126  -1.1658637  -8.2112927  -3.4887378
    2  -2.0375703   0.4926770   2.2541882   4.4132451  -5.6086422   0.2547621
    3  -0.3068805   2.2306685  -0.7639526   1.3625928  -1.8093837   3.4520867
            7           8           9          10          11          12
    1   2.7869518   2.7377174  -2.2229785   1.9975471   3.6145573   2.7684597
    2  -2.5982670  -1.0797856  -3.2247017  -1.5706678   2.1101124   0.1083038
    3   1.3116712   2.6614469   0.4471604  -2.9490684   1.1766190   2.8670446
           13          14          15          16          17
    1  -0.9887193   2.6257488   1.0937798   0.4467074  -1.3569870
    2   3.7133551   0.7546431   2.4285102   3.3970972  -3.8072596
    3   0.2865793  -2.6751702  -1.1594327  -3.3263380  -2.8056432
 Gradient of SCF Energy
            1           2           3           4           5           6
    1   0.0040442  -0.0032203   0.0004189  -0.0013242   0.0002710  -0.0026710
    2   0.0026612  -0.0029562   0.0021810   0.0044249  -0.0019381  -0.0001691
    3  -0.0025817   0.0022974   0.0004481   0.0007196  -0.0010100   0.0024403
            7           8           9          10          11          12
    1  -0.0016829   0.0032139  -0.0034950   0.0023238  -0.0008522   0.0029004
    2   0.0019187  -0.0006308  -0.0034793  -0.0009618  -0.0016195  -0.0004476
    3   0.0003626   0.0039651   0.0003860  -0.0039070  -0.0000443   0.0039535
           13          14          15          16          17
    1  -0.0025062   0.0028287   0.0003935   0.0006411  -0.0012838
    2   0.0042107   0.0003712  -0.0033764   0.0039415  -0.0041305
    3   0.0004528  -0.0038821   0.0023329  -0.0026354  -0.0032978
 Max gradient component =       4.425E-03
 RMS gradient           =       2.517E-03
 Gradient time:  CPU 98.00 s  wall 98.51 s
 Geometry Optimization Parameters
   NAtoms,    NIC,     NZ,  NCons,   NDum,   NFix, NCnnct, MaxDiis
       17     128      17       0       0       0       0       0

 Cartesian Hessian Update
 Hessian Updated using Powell/Murtagh-Sargent Update
  Mixing factors:     0.000232 Powell
                      0.999768 Murtagh-Sargent


** GEOMETRY OPTIMIZATION IN DELOCALIZED INTERNAL COORDINATES **
   Searching for a Transition State

   Optimization Cycle:   2

                       Coordinates (Angstroms)
     ATOM              X           Y           Z
      1  C        -0.838527    0.016172   -0.073738
      2  H         0.225029   -0.156679   -1.010174
      3  C         1.335262   -0.452756   -0.203481
      4  H         1.557428   -1.501002   -0.412258
      5  O         2.443139    0.375665   -0.167890
      6  H         2.990840    0.214977   -0.939318
      7  C        -1.400210    1.409273   -0.141547
      8  H        -2.114477    1.510023   -0.958077
      9  H        -0.608886    2.146905   -0.284174
     10  H        -1.919565    1.664633    0.790229
     11  C        -1.822486   -1.115494   -0.192487
     12  H        -2.475110   -0.988403   -1.056310
     13  H        -1.319725   -2.079898   -0.283302
     14  H        -2.461335   -1.167556    0.698074
     15  C         0.324107   -0.201836    0.897514
     16  H         0.192842   -1.010595    1.615229
     17  H         0.586646    0.708841    1.434950
   Point Group: c1    Number of degrees of freedom:    45


   Energy is   -272.142420559

 GETINT wrote B to file, NVib is           45
 Hessian Updated using Powell/Murtagh-Sargent Update
  Mixing factors:     0.945410 Powell
                      0.054590 Murtagh-Sargent

 40 Hessian modes will be used to form the next step
  Hessian Eigenvalues:
     0.000663    0.008623    0.008719    0.017798    0.022852    0.031039
     0.035519    0.041846    0.054910    0.057259    0.057751    0.057906
     0.058829    0.058979    0.064586    0.078574    0.085867    0.094353
     0.100063    0.122998    0.142751    0.155120    0.159986    0.160000
     0.176383    0.268077    0.285383    0.319348    0.320121    0.340065
     0.340467    0.346345    0.346729    0.346956    0.348221    0.348827
     0.348874    0.349177    0.484245    0.555673
**WARNING** Hessian does not have the Desired Local Structure

 Transition State Search - Taking P-RFO Step
 Searching for Lamda that Maximizes Along the Lowest mode
 Value Taken    Lamda =   0.00092044
 Searching for Lamda that Minimizes Along All other modes
 Value Taken    Lamda =  -0.00122619
 Calculated Step too Large.  Step scaled by  0.158340
 Step Taken.  Stepsize is  0.300000

                             Maximum     Tolerance    Cnvgd?
         Gradient           0.010533      0.000300      NO
         Displacement       0.101722      0.001200      NO
         Energy change      0.000199      0.000001      NO


 New Cartesian Coordinates Obtained by Inverse Iteration

 Displacement from previous Coordinates is:  0.455134
 ----------------------------------------------------
       Standard Nuclear Orientation (Angstroms)
    I     Atom         X            Y            Z
 ----------------------------------------------------
    1      C      -0.839762    -0.005637    -0.072470
    2      H       0.221307    -0.202891    -1.008538
    3      C       1.344089    -0.443328    -0.199776
    4      H       1.625066    -1.480369    -0.401069
    5      O       2.401592     0.449284    -0.176502
    6      H       2.955385     0.315208    -0.949256
    7      C      -1.362765     1.401446    -0.160859
    8      H      -2.072163     1.511180    -0.982041
    9      H      -0.549722     2.115902    -0.310040
   10      H      -1.877776     1.682553     0.767111
   11      C      -1.854764    -1.113414    -0.176285
   12      H      -2.505277    -0.980088    -1.042296
   13      H      -1.376534    -2.092408    -0.255668
   14      H      -2.495243    -1.138373     0.715800
   15      C       0.320724    -0.233336     0.901133
   16      H       0.193629    -1.072391     1.584958
   17      H       0.567186     0.658935     1.479039
 ----------------------------------------------------
 Molecular Point Group                 C1    NOp =  1
 Largest Abelian Subgroup              C1    NOp =  1
 Nuclear Repulsion Energy =   248.2590147018 hartrees
 There are       25 alpha and       24 beta electrons
 Applying Cartesian multipole field
    Component          Value
    ---------          -----
     (2,0,0)        1.00000E-11
     (0,2,0)        2.00000E-11
     (0,0,2)       -3.00000E-11
 Nucleus-field energy     =     0.0000000059 hartrees
 Requested basis set is non-standard
 There are 138 shells and 314 basis functions
 A cutoff of  1.0D-11 yielded   8986 shell pairs
 There are     46328 function pairs (     55666 Cartesian)
 Smallest overlap matrix eigenvalue = 1.89E-05
 Guess MOs from SCF MO coefficient file
Reading MOs from coefficient file
Reading MOs from coefficient file
 An unrestricted hybrid HF-DFT SCF calculation will be
 performed using Pulay DIIS extrapolation
 Exchange:     0.5679 Hartree-Fock + 1.0000 M08SO
 SCF converges when DIIS error is below 1.0E-08
Geometry optimization detected.  Setting ReadMinima to 0
Setting SaveMinima to 0
 Inaccurate integrated density:
   Number of electrons =    49
   Numerical integral  =    48.975614385499
   Relative error      =    -0.0497665602 %
 ---------------------------------------
  Cycle       Energy         DIIS Error
 ---------------------------------------
    1    -272.1283878481      7.47E-04
    2    -272.1422204145      1.04E-04
    3    -272.1423787225      7.85E-05
    4    -272.1424582837      1.91E-05
    5    -272.1424650341      7.60E-06
    6    -272.1424660597      2.84E-06
    7    -272.1424662410      6.82E-07
    8    -272.1424662792      3.95E-07
    9    -272.1424662876      1.48E-07
   10    -272.1424662888      4.59E-08
   11    -272.1424662891      1.76E-08
   12    -272.1424662895      5.98E-09 Convergence criterion met
 ---------------------------------------
 <S^2> = 0.7622
 SCF time:  CPU 790.99 s  wall 801.33 s
 SCF   energy in the final basis set = -272.1424662895
 Total energy in the final basis set = -272.1424662895
 Analysis of SCF Wavefunction
 
 --------------------------------------------------------------
                    Orbital Energies (a.u.)
 --------------------------------------------------------------
 
 Alpha MOs
 -- Occupied --
-19.583 -10.551 -10.507 -10.487 -10.485 -10.482  -1.159  -0.924
 -0.826  -0.783  -0.699  -0.645  -0.609  -0.557  -0.517  -0.509
 -0.489  -0.484  -0.460  -0.437  -0.420  -0.405  -0.384  -0.352
 -0.203
 -- Virtual --
 -0.027  -0.015  -0.008  -0.005   0.012   0.018   0.021   0.025
  0.026   0.046   0.057   0.062   0.068   0.075   0.082   0.091
  0.097   0.113   0.120   0.125   0.129   0.134   0.138   0.141
  0.149   0.152   0.156   0.162   0.174   0.177   0.185   0.196
  0.201   0.206   0.215   0.220   0.240   0.243   0.257   0.274
  0.293   0.295   0.299   0.304   0.321   0.329   0.342   0.355
  0.365   0.373   0.399   0.432   0.445   0.467   0.473   0.499
  0.510   0.519   0.531   0.538   0.555   0.564   0.569   0.571
  0.577   0.587   0.593   0.599   0.611   0.622   0.635   0.636
  0.643   0.655   0.678   0.688   0.702   0.710   0.722   0.735
  0.763   0.772   0.799   0.833   0.846   0.861   0.885   0.930
  0.937   0.954   0.982   0.984   0.996   1.013   1.030   1.050
  1.056   1.097   1.103   1.106   1.139   1.146   1.151   1.171
  1.182   1.203   1.208   1.231   1.244   1.259   1.273   1.287
  1.294   1.306   1.319   1.321   1.333   1.346   1.356   1.376
  1.391   1.402   1.412   1.416   1.423   1.453   1.464   1.483
  1.491   1.503   1.529   1.545   1.552   1.573   1.581   1.590
  1.619   1.631   1.639   1.679   1.699   1.738   1.752   1.795
  1.931   2.064   2.132   2.247   2.303   2.381   2.440   2.451
  2.505   2.508   2.534   2.591   2.661   2.680   2.697   2.707
  2.733   2.754   2.779   2.807   2.850   2.875   2.912   2.941
  2.950   2.961   2.978   2.984   3.002   3.024   3.035   3.059
  3.081   3.108   3.150   3.154   3.168   3.177   3.197   3.232
  3.244   3.260   3.291   3.295   3.325   3.338   3.357   3.373
  3.387   3.419   3.425   3.449   3.458   3.488   3.515   3.545
  3.563   3.574   3.615   3.628   3.650   3.660   3.698   3.709
  3.729   3.735   3.763   3.778   3.800   3.814   3.868   3.881
  3.890   3.901   3.929   3.966   3.977   3.998   4.028   4.052
  4.061   4.083   4.097   4.106   4.131   4.140   4.161   4.172
  4.178   4.189   4.206   4.237   4.265   4.320   4.339   4.361
  4.383   4.398   4.411   4.436   4.458   4.468   4.486   4.534
  4.545   4.567   4.581   4.613   4.662   4.717   4.767   4.789
  4.816   4.884   5.035   5.145   5.156   5.205   5.227   5.333
  5.411   5.433   5.494   5.526   5.575   5.611   5.632   5.661
  5.668   5.700   5.774   5.951   6.532   6.934   7.126   7.142
  7.197   7.487   7.606  23.966  24.116  24.226  24.261  24.309
 49.804
 
 Beta MOs
 -- Occupied --
-19.581 -10.540 -10.495 -10.487 -10.485 -10.482  -1.152  -0.917
 -0.821  -0.782  -0.692  -0.632  -0.602  -0.543  -0.509  -0.504
 -0.479  -0.469  -0.454  -0.435  -0.415  -0.406  -0.383  -0.332
 -- Virtual --
 -0.031  -0.022  -0.013  -0.008   0.000   0.006   0.015   0.019
  0.023   0.024   0.040   0.054   0.059   0.065   0.072   0.081
  0.089   0.095   0.111   0.117   0.123   0.128   0.132   0.137
  0.139   0.147   0.151   0.155   0.160   0.173   0.182   0.186
  0.199   0.201   0.211   0.216   0.222   0.239   0.244   0.260
  0.278   0.295   0.297   0.299   0.308   0.323   0.335   0.346
  0.363   0.374   0.381   0.402   0.433   0.447   0.467   0.476
  0.504   0.510   0.522   0.536   0.540   0.559   0.569   0.573
  0.576   0.583   0.588   0.599   0.609   0.619   0.628   0.645
  0.646   0.656   0.666   0.681   0.697   0.705   0.711   0.726
  0.740   0.769   0.781   0.803   0.835   0.850   0.866   0.889
  0.932   0.942   0.959   0.987   0.989   1.001   1.016   1.034
  1.054   1.060   1.100   1.108   1.112   1.145   1.148   1.155
  1.174   1.189   1.213   1.216   1.237   1.253   1.268   1.282
  1.293   1.305   1.315   1.327   1.339   1.344   1.354   1.362
  1.388   1.399   1.407   1.415   1.425   1.429   1.456   1.469
  1.488   1.501   1.509   1.541   1.548   1.560   1.576   1.586
  1.593   1.628   1.639   1.649   1.687   1.711   1.751   1.770
  1.804   1.939   2.072   2.141   2.250   2.308   2.388   2.455
  2.459   2.518   2.527   2.551   2.604   2.674   2.709   2.713
  2.723   2.808   2.817   2.837   2.839   2.894   2.910   2.919
  2.942   2.965   2.977   2.996   3.015   3.034   3.058   3.067
  3.078   3.108   3.146   3.154   3.178   3.183   3.192   3.215
  3.248   3.256   3.287   3.303   3.313   3.332   3.354   3.366
  3.384   3.420   3.433   3.457   3.473   3.491   3.519   3.545
  3.561   3.582   3.590   3.633   3.661   3.673   3.684   3.714
  3.724   3.752   3.756   3.784   3.802   3.822   3.827   3.889
  3.898   3.909   3.918   3.952   3.982   3.987   4.007   4.039
  4.050   4.067   4.100   4.108   4.119   4.147   4.155   4.173
  4.183   4.189   4.203   4.208   4.258   4.291   4.339   4.351
  4.369   4.393   4.408   4.418   4.461   4.481   4.514   4.528
  4.557   4.572   4.589   4.595   4.645   4.700   4.703   4.825
  4.869   4.891   4.943   5.090   5.156   5.173   5.220   5.265
  5.361   5.460   5.515   5.536   5.539   5.597   5.613   5.636
  5.663   5.672   5.704   5.774   5.951   6.533   6.935   7.127
  7.146   7.199   7.484   7.596  23.973  24.123  24.230  24.270
 24.322  49.807
 --------------------------------------------------------------
 
          Ground-State Mulliken Net Atomic Charges

     Atom                 Charge (a.u.)    Spin (a.u.)
  --------------------------------------------------------
      1 C                     0.551580       0.546043
      2 H                     0.141287      -0.103754
      3 C                    -0.393233       0.510878
      4 H                     0.214177       0.010356
      5 O                    -0.280841       0.040959
      6 H                     0.286985      -0.003119
      7 C                    -0.789204      -0.030944
      8 H                     0.192283       0.000127
      9 H                     0.211778       0.009598
     10 H                     0.200587       0.035499
     11 C                    -0.833955      -0.027594
     12 H                     0.194927       0.000155
     13 H                     0.189766       0.005783
     14 H                     0.193822       0.043963
     15 C                    -0.591775      -0.034711
     16 H                     0.238015      -0.003072
     17 H                     0.273801      -0.000166
  --------------------------------------------------------
  Sum of atomic charges =     0.000000
  Sum of spin   charges =     1.000000

 -----------------------------------------------------------------
                    Cartesian Multipole Moments
 -----------------------------------------------------------------
    Charge (ESU x 10^10)
                 0.0000
    Dipole Moment (Debye)
         X       0.0313      Y      -0.8687      Z      -0.7962
       Tot       1.1788
    Quadrupole Moments (Debye-Ang)
        XX     -38.7422     XY      -1.9384     YY     -40.4985
        XZ      -4.0186     YZ      -0.2612     ZZ     -39.4796
    Octapole Moments (Debye-Ang^2)
       XXX      23.1192    XXY      -2.7373    XYY       4.4482
       YYY      -1.6539    XXZ     -15.6924    XYZ      -0.5745
       YYZ      -0.0216    XZZ       7.4587    YZZ       1.1630
       ZZZ      -0.6734
    Hexadecapole Moments (Debye-Ang^3)
      XXXX    -600.4804   XXXY     -13.9127   XXYY    -156.1744
      XYYY     -10.0958   YYYY    -259.0532   XXXZ     -46.7992
      XXYZ      -2.1089   XYYZ      -1.7543   YYYZ       4.3946
      XXZZ    -109.4783   XYZZ      -1.4906   YYZZ     -63.1352
      XZZZ      -7.0136   YZZZ       2.7564   ZZZZ    -123.2409
 -----------------------------------------------------------------
 Calculating analytic gradient of the SCF energy
 Gradient of Coulomb and Exchange Energy
            1           2           3           4           5           6
    1   1.2742764  -0.0533703  -1.8584634  -1.3811979  -7.9306358  -3.4921906
    2  -1.7505906   0.5676843   2.4586636   4.3656456  -5.8789500   0.0704690
    3  -0.3759982   2.2326030  -0.8463941   1.3329827  -1.7159022   3.4618046
            7           8           9          10          11          12
    1   2.6583519   2.7214700  -2.2937907   1.9824149   3.7512415   2.7551416
    2  -2.6866838  -1.1129462  -3.1620510  -1.6491677   2.0369286   0.0818149
    3   1.3590733   2.7045121   0.4827673  -2.9351760   1.1730303   2.8524726
           13          14          15          16          17
    1  -0.9088037   2.6226367   1.0027825   0.4447722  -1.2946355
    2   3.7454320   0.6636217   2.4455747   3.5277919  -3.7232371
    3   0.2390189  -2.6826653  -1.1129221  -3.2248226  -2.9443842
 Gradient of SCF Energy
            1           2           3           4           5           6
    1   0.0043308  -0.0034333   0.0008732  -0.0015722   0.0003899  -0.0021954
    2   0.0036983  -0.0036920   0.0034227   0.0033606  -0.0019066  -0.0003188
    3  -0.0025364   0.0021799   0.0007397   0.0001502  -0.0006992   0.0020798
            7           8           9          10          11          12
    1  -0.0015394   0.0026903  -0.0030841   0.0020143  -0.0009766   0.0023515
    2   0.0014485  -0.0006229  -0.0028009  -0.0009880  -0.0016688  -0.0004865
    3   0.0003969   0.0033729   0.0003112  -0.0032708  -0.0003037   0.0033319
           13          14          15          16          17
    1  -0.0020259   0.0023594   0.0002009   0.0005470  -0.0009305
    2   0.0036076   0.0001722  -0.0037623   0.0036752  -0.0031381
    3   0.0003323  -0.0032527   0.0020461  -0.0022325  -0.0026457
 Max gradient component =       4.331E-03
 RMS gradient           =       2.323E-03
 Gradient time:  CPU 100.27 s  wall 100.81 s
 Geometry Optimization Parameters
   NAtoms,    NIC,     NZ,  NCons,   NDum,   NFix, NCnnct, MaxDiis
       17     128      17       0       0       0       0       0

 Cartesian Hessian Update
 Hessian Updated using Powell/Murtagh-Sargent Update
  Mixing factors:     0.982848 Powell
                      0.017152 Murtagh-Sargent


** GEOMETRY OPTIMIZATION IN DELOCALIZED INTERNAL COORDINATES **
   Searching for a Transition State

   Optimization Cycle:   3

                       Coordinates (Angstroms)
     ATOM              X           Y           Z
      1  C        -0.839762   -0.005637   -0.072470
      2  H         0.221307   -0.202891   -1.008538
      3  C         1.344089   -0.443328   -0.199776
      4  H         1.625066   -1.480369   -0.401069
      5  O         2.401592    0.449284   -0.176502
      6  H         2.955385    0.315208   -0.949256
      7  C        -1.362765    1.401446   -0.160859
      8  H        -2.072163    1.511180   -0.982041
      9  H        -0.549722    2.115902   -0.310040
     10  H        -1.877776    1.682553    0.767111
     11  C        -1.854764   -1.113414   -0.176285
     12  H        -2.505277   -0.980088   -1.042296
     13  H        -1.376534   -2.092408   -0.255668
     14  H        -2.495243   -1.138373    0.715800
     15  C         0.320724   -0.233336    0.901133
     16  H         0.193629   -1.072391    1.584958
     17  H         0.567186    0.658935    1.479039
   Point Group: c1    Number of degrees of freedom:    45


   Energy is   -272.142466290

 GETINT wrote B to file, NVib is           45
 Hessian Updated using Powell/Murtagh-Sargent Update
  Mixing factors:     0.968317 Powell
                      0.031683 Murtagh-Sargent

 41 Hessian modes will be used to form the next step
  Hessian Eigenvalues:
    -0.000435    0.008623    0.008714    0.017799    0.022851    0.031037
     0.035432    0.041840    0.054890    0.057259    0.057702    0.057906
     0.058829    0.058978    0.064458    0.078558    0.085863    0.094349
     0.100020    0.122939    0.142641    0.155111    0.159966    0.159991
     0.160002    0.176373    0.268066    0.285386    0.319251    0.320101
     0.340066    0.340464    0.346327    0.346729    0.346956    0.348222
     0.348792    0.348875    0.349142    0.484235    0.555673

 Transition State Search - Taking P-RFO Step
 Searching for Lamda that Maximizes Along the Lowest mode
 Value Taken    Lamda =   0.00006563
 Searching for Lamda that Minimizes Along All other modes
 Value Taken    Lamda =  -0.00099372
 Calculated Step too Large.  Step scaled by  0.795657
 Step Taken.  Stepsize is  0.300000

                             Maximum     Tolerance    Cnvgd?
         Gradient           0.008882      0.000300      NO
         Displacement       0.101023      0.001200      NO
         Energy change     -0.000046      0.000001      NO


 New Cartesian Coordinates Obtained by Inverse Iteration

 Displacement from previous Coordinates is:  0.459108
 ----------------------------------------------------
       Standard Nuclear Orientation (Angstroms)
    I     Atom         X            Y            Z
 ----------------------------------------------------
    1      C      -0.845591    -0.028497    -0.066446
    2      H       0.226106    -0.234784    -1.005800
    3      C       1.354919    -0.438637    -0.195833
    4      H       1.694942    -1.464665    -0.385196
    5      O       2.357673     0.518678    -0.192836
    6      H       2.916449     0.415883    -0.969438
    7      C      -1.326603     1.395400    -0.180111
    8      H      -2.021903     1.518551    -1.018241
    9      H      -0.485526     2.086364    -0.323206
   10      H      -1.849970     1.703862     0.740227
   11      C      -1.889245    -1.114477    -0.158398
   12      H      -2.537137    -0.974345    -1.031504
   13      H      -1.430612    -2.109034    -0.227203
   14      H      -2.534844    -1.115337     0.736460
   15      C       0.318759    -0.261619     0.907121
   16      H       0.196734    -1.135982     1.554887
   17      H       0.550822     0.610909     1.528758
 ----------------------------------------------------
 Molecular Point Group                 C1    NOp =  1
 Largest Abelian Subgroup              C1    NOp =  1
 Nuclear Repulsion Energy =   247.8384554527 hartrees
 There are       25 alpha and       24 beta electrons
 Applying Cartesian multipole field
    Component          Value
    ---------          -----
     (2,0,0)        1.00000E-11
     (0,2,0)        2.00000E-11
     (0,0,2)       -3.00000E-11
 Nucleus-field energy     =     0.0000000059 hartrees
 Requested basis set is non-standard
 There are 138 shells and 314 basis functions
 A cutoff of  1.0D-11 yielded   8991 shell pairs
 There are     46417 function pairs (     55830 Cartesian)
 Smallest overlap matrix eigenvalue = 1.91E-05
 Guess MOs from SCF MO coefficient file
Reading MOs from coefficient file
Reading MOs from coefficient file
 An unrestricted hybrid HF-DFT SCF calculation will be
 performed using Pulay DIIS extrapolation
 Exchange:     0.5679 Hartree-Fock + 1.0000 M08SO
 SCF converges when DIIS error is below 1.0E-08
Geometry optimization detected.  Setting ReadMinima to 0
Setting SaveMinima to 0
 Inaccurate integrated density:
   Number of electrons =    49
   Numerical integral  =    48.964996286158
   Relative error      =    -0.0714361507 %
 ---------------------------------------
  Cycle       Energy         DIIS Error
 ---------------------------------------
    1    -272.1247345153      7.93E-04
    2    -272.1427307332      1.06E-04
    3    -272.1429140158      7.98E-05
    4    -272.1429915430      2.20E-05
    5    -272.1430008454      9.10E-06
    6    -272.1430025570      3.49E-06
    7    -272.1430029872      1.02E-06
    8    -272.1430031531      5.73E-07
    9    -272.1430031884      2.59E-07
   10    -272.1430031954      1.02E-07
   11    -272.1430031964      4.03E-08
   12    -272.1430031965      1.85E-08
   13    -272.1430031962      5.14E-09 Convergence criterion met
 ---------------------------------------
 <S^2> = 0.7624
 SCF time:  CPU 874.32 s  wall 883.60 s
 SCF   energy in the final basis set = -272.1430031962
 Total energy in the final basis set = -272.1430031962
 Analysis of SCF Wavefunction
 
 --------------------------------------------------------------
                    Orbital Energies (a.u.)
 --------------------------------------------------------------
 
 Alpha MOs
 -- Occupied --
-19.583 -10.553 -10.508 -10.489 -10.487 -10.484  -1.158  -0.922
 -0.824  -0.781  -0.699  -0.642  -0.609  -0.555  -0.516  -0.507
 -0.488  -0.482  -0.459  -0.436  -0.420  -0.405  -0.383  -0.351
 -0.204
 -- Virtual --
 -0.027  -0.015  -0.008  -0.005   0.012   0.019   0.021   0.025
  0.025   0.046   0.057   0.062   0.068   0.075   0.082   0.091
  0.096   0.113   0.120   0.125   0.129   0.134   0.138   0.141
  0.148   0.152   0.155   0.161   0.173   0.177   0.185   0.195
  0.202   0.207   0.212   0.219   0.237   0.242   0.255   0.275
  0.290   0.294   0.299   0.301   0.319   0.327   0.343   0.352
  0.364   0.371   0.398   0.432   0.444   0.468   0.475   0.497
  0.509   0.519   0.530   0.537   0.557   0.564   0.568   0.572
  0.574   0.586   0.593   0.599   0.609   0.621   0.633   0.634
  0.642   0.651   0.680   0.685   0.698   0.705   0.719   0.734
  0.767   0.773   0.799   0.831   0.843   0.862   0.881   0.929
  0.939   0.954   0.979   0.982   0.997   1.008   1.027   1.045
  1.055   1.096   1.103   1.105   1.135   1.146   1.149   1.167
  1.183   1.193   1.204   1.229   1.245   1.256   1.273   1.287
  1.291   1.306   1.316   1.318   1.327   1.344   1.354   1.371
  1.389   1.399   1.407   1.413   1.422   1.450   1.459   1.482
  1.492   1.497   1.533   1.540   1.549   1.570   1.579   1.586
  1.613   1.625   1.637   1.665   1.696   1.744   1.751   1.794
  1.933   2.055   2.134   2.244   2.302   2.384   2.440   2.451
  2.508   2.512   2.532   2.590   2.656   2.678   2.696   2.709
  2.727   2.751   2.771   2.812   2.846   2.875   2.909   2.939
  2.948   2.956   2.973   2.983   2.998   3.027   3.034   3.054
  3.075   3.108   3.144   3.157   3.167   3.172   3.196   3.227
  3.243   3.260   3.290   3.292   3.320   3.335   3.353   3.376
  3.385   3.413   3.423   3.446   3.460   3.489   3.509   3.542
  3.547   3.568   3.617   3.623   3.645   3.653   3.691   3.700
  3.723   3.731   3.758   3.780   3.799   3.810   3.862   3.868
  3.880   3.899   3.913   3.961   3.973   3.993   4.023   4.041
  4.056   4.072   4.085   4.101   4.123   4.133   4.150   4.162
  4.174   4.183   4.197   4.224   4.258   4.304   4.330   4.350
  4.365   4.385   4.402   4.422   4.449   4.466   4.480   4.519
  4.538   4.553   4.569   4.613   4.645   4.711   4.756   4.778
  4.808   4.878   5.028   5.138   5.154   5.198   5.218   5.322
  5.406   5.417   5.481   5.510   5.567   5.592   5.610   5.640
  5.649   5.680   5.761   5.943   6.522   6.934   7.119   7.131
  7.198   7.490   7.602  23.953  24.099  24.200  24.238  24.283
 49.802
 
 Beta MOs
 -- Occupied --
-19.581 -10.541 -10.496 -10.490 -10.487 -10.484  -1.151  -0.915
 -0.819  -0.780  -0.691  -0.629  -0.602  -0.541  -0.508  -0.503
 -0.479  -0.468  -0.453  -0.434  -0.414  -0.406  -0.383  -0.331
 -- Virtual --
 -0.031  -0.022  -0.013  -0.008   0.000   0.005   0.014   0.019
  0.023   0.024   0.040   0.054   0.059   0.065   0.071   0.081
  0.089   0.094   0.111   0.116   0.124   0.128   0.132   0.137
  0.139   0.147   0.151   0.154   0.159   0.172   0.182   0.185
  0.199   0.202   0.211   0.214   0.221   0.237   0.243   0.258
  0.279   0.292   0.298   0.298   0.304   0.321   0.334   0.347
  0.360   0.374   0.379   0.401   0.433   0.447   0.468   0.479
  0.502   0.510   0.521   0.536   0.540   0.561   0.568   0.573
  0.577   0.580   0.587   0.597   0.613   0.617   0.626   0.642
  0.643   0.655   0.661   0.686   0.692   0.701   0.706   0.723
  0.740   0.772   0.784   0.802   0.833   0.847   0.867   0.885
  0.930   0.943   0.960   0.984   0.987   1.001   1.011   1.031
  1.050   1.058   1.099   1.107   1.112   1.140   1.148   1.153
  1.171   1.189   1.204   1.212   1.235   1.253   1.264   1.282
  1.294   1.301   1.316   1.322   1.337   1.341   1.350   1.360
  1.383   1.398   1.404   1.412   1.421   1.428   1.453   1.465
  1.485   1.500   1.504   1.542   1.544   1.557   1.574   1.582
  1.590   1.622   1.631   1.649   1.674   1.709   1.759   1.770
  1.800   1.941   2.064   2.142   2.247   2.306   2.391   2.455
  2.458   2.521   2.529   2.551   2.603   2.673   2.702   2.714
  2.728   2.801   2.817   2.833   2.842   2.889   2.908   2.917
  2.941   2.960   2.974   2.992   3.017   3.025   3.057   3.071
  3.075   3.102   3.146   3.153   3.174   3.178   3.191   3.213
  3.247   3.253   3.285   3.298   3.314   3.326   3.352   3.361
  3.386   3.416   3.430   3.455   3.471   3.490   3.517   3.540
  3.559   3.577   3.579   3.632   3.654   3.669   3.681   3.706
  3.719   3.744   3.752   3.780   3.801   3.819   3.825   3.882
  3.891   3.895   3.912   3.942   3.975   3.984   4.004   4.036
  4.048   4.056   4.086   4.102   4.112   4.140   4.145   4.162
  4.175   4.183   4.194   4.203   4.246   4.284   4.329   4.341
  4.359   4.374   4.395   4.408   4.452   4.472   4.507   4.524
  4.542   4.564   4.576   4.586   4.645   4.685   4.695   4.811
  4.866   4.884   4.940   5.086   5.151   5.171   5.211   5.254
  5.357   5.450   5.503   5.520   5.525   5.580   5.597   5.615
  5.643   5.653   5.686   5.760   5.942   6.524   6.935   7.121
  7.134   7.200   7.486   7.593  23.961  24.106  24.204  24.246
 24.297  49.805
 --------------------------------------------------------------
 
          Ground-State Mulliken Net Atomic Charges

     Atom                 Charge (a.u.)    Spin (a.u.)
  --------------------------------------------------------
      1 C                     0.542640       0.562261
      2 H                     0.137432      -0.105470
      3 C                    -0.381830       0.498810
      4 H                     0.210800       0.011660
      5 O                    -0.282852       0.038953
      6 H                     0.288960      -0.003031
      7 C                    -0.789966      -0.032764
      8 H                     0.192345       0.000351
      9 H                     0.211687       0.009201
     10 H                     0.198959       0.036549
     11 C                    -0.818175      -0.028025
     12 H                     0.192291       0.000356
     13 H                     0.187508       0.006379
     14 H                     0.190595       0.044780
     15 C                    -0.592900      -0.036975
     16 H                     0.245943      -0.002504
     17 H                     0.266561      -0.000533
  --------------------------------------------------------
  Sum of atomic charges =     0.000000
  Sum of spin   charges =     1.000000

 -----------------------------------------------------------------
                    Cartesian Multipole Moments
 -----------------------------------------------------------------
    Charge (ESU x 10^10)
                 0.0000
    Dipole Moment (Debye)
         X       0.0800      Y      -0.8600      Z      -0.7901
       Tot       1.1706
    Quadrupole Moments (Debye-Ang)
        XX     -38.6284     XY      -1.7970     YY     -40.6190
        XZ      -3.9847     YZ      -0.4528     ZZ     -39.4743
    Octapole Moments (Debye-Ang^2)
       XXX      24.0245    XXY      -2.1952    XYY       4.6393
       YYY      -2.1981    XXZ     -15.4933    XYZ      -1.0964
       YYZ      -0.0294    XZZ       7.7698    YZZ       1.4542
       ZZZ      -0.8120
    Hexadecapole Moments (Debye-Ang^3)
      XXXX    -598.4302   XXXY     -16.7616   XXYY    -155.6691
      XYYY     -15.3610   YYYY    -262.2213   XXXZ     -45.0867
      XXYZ      -2.7535   XYYZ      -1.8911   YYYZ       6.5158
      XXZZ    -108.8855   XYZZ      -2.6360   YYZZ     -63.7440
      XZZZ      -6.3677   YZZZ       5.0553   ZZZZ    -124.3273
 -----------------------------------------------------------------
 Calculating analytic gradient of the SCF energy
 Gradient of Coulomb and Exchange Energy
            1           2           3           4           5           6
    1   1.4087947   0.0435740  -2.0650879  -1.6000100  -7.6055253  -3.4766813
    2  -1.2879228   0.4921385   2.7716393   4.3226218  -6.0986787  -0.1407920
    3  -0.4234143   2.2164201  -0.9896077   1.2650583  -1.5391002   3.4694447
            7           8           9          10          11          12
    1   2.5385588   2.6582643  -2.3808140   2.0055653   3.8890973   2.7250023
    2  -2.7852318  -1.1506101  -3.0819625  -1.7234052   1.9436624   0.0496545
    3   1.3826133   2.7832894   0.4753542  -2.8908823   1.1585284   2.8506292
           13          14          15          16          17
    1  -0.8476997   2.6223693   0.8843443   0.4335030  -1.2332551
    2   3.7676534   0.5781135   2.3007144   3.6702557  -3.6278504
    3   0.1947063  -2.6956090  -1.0882555  -3.0821165  -3.0870582
 Gradient of SCF Energy
            1           2           3           4           5           6
    1   0.0042212  -0.0062299   0.0037656  -0.0010682   0.0001602  -0.0002433
    2   0.0016744  -0.0015776   0.0023755   0.0004671  -0.0009006  -0.0000613
    3  -0.0040711   0.0015768   0.0026304  -0.0007050  -0.0002257   0.0004914
            7           8           9          10          11          12
    1  -0.0008159   0.0005662  -0.0008218   0.0006641  -0.0007929   0.0005139
    2   0.0004679  -0.0001997  -0.0004692  -0.0003074  -0.0009782  -0.0001207
    3   0.0003720   0.0008244  -0.0000619  -0.0007112  -0.0000634   0.0007419
           13          14          15          16          17
    1  -0.0004677   0.0005265   0.0001068   0.0001125  -0.0001972
    2   0.0008080   0.0000017  -0.0014679   0.0009345  -0.0006465
    3   0.0000512  -0.0007566   0.0009925  -0.0006381  -0.0004478
 Max gradient component =       6.230E-03
 RMS gradient           =       1.559E-03
 Gradient time:  CPU 98.77 s  wall 99.00 s
 Geometry Optimization Parameters
   NAtoms,    NIC,     NZ,  NCons,   NDum,   NFix, NCnnct, MaxDiis
       17     128      17       0       0       0       0       0

 Cartesian Hessian Update
 Hessian Updated using Powell/Murtagh-Sargent Update
  Mixing factors:     0.977383 Powell
                      0.022617 Murtagh-Sargent


** GEOMETRY OPTIMIZATION IN DELOCALIZED INTERNAL COORDINATES **
   Searching for a Transition State

   Optimization Cycle:   4

                       Coordinates (Angstroms)
     ATOM              X           Y           Z
      1  C        -0.845591   -0.028497   -0.066446
      2  H         0.226106   -0.234784   -1.005800
      3  C         1.354919   -0.438637   -0.195833
      4  H         1.694942   -1.464665   -0.385196
      5  O         2.357673    0.518678   -0.192836
      6  H         2.916449    0.415883   -0.969438
      7  C        -1.326603    1.395400   -0.180111
      8  H        -2.021903    1.518551   -1.018241
      9  H        -0.485526    2.086364   -0.323206
     10  H        -1.849970    1.703862    0.740227
     11  C        -1.889245   -1.114477   -0.158398
     12  H        -2.537137   -0.974345   -1.031504
     13  H        -1.430612   -2.109034   -0.227203
     14  H        -2.534844   -1.115337    0.736460
     15  C         0.318759   -0.261619    0.907121
     16  H         0.196734   -1.135982    1.554887
     17  H         0.550822    0.610909    1.528758
   Point Group: c1    Number of degrees of freedom:    45


   Energy is   -272.143003196

 GETINT wrote B to file, NVib is           45
 Hessian Updated using Powell/Murtagh-Sargent Update
  Mixing factors:     0.985475 Powell
                      0.014525 Murtagh-Sargent

 42 Hessian modes will be used to form the next step
  Hessian Eigenvalues:
    -0.001878    0.008597    0.008624    0.017798    0.022717    0.031047
     0.034890    0.042017    0.054783    0.057257    0.057526    0.057907
     0.058829    0.058978    0.064306    0.078445    0.085868    0.094328
     0.099556    0.122973    0.141391    0.155196    0.159958    0.159988
     0.159996    0.160082    0.176400    0.267998    0.285435    0.319305
     0.320156    0.340050    0.340432    0.346347    0.346717    0.346948
     0.348212    0.348805    0.348852    0.349097    0.484219    0.555679

 Transition State Search - Taking P-RFO Step
 Searching for Lamda that Maximizes Along the Lowest mode
 Value Taken    Lamda =   0.00041084
 Searching for Lamda that Minimizes Along All other modes
 Value Taken    Lamda =  -0.00036107
 Calculated Step too Large.  Step scaled by  0.696345
 Step Taken.  Stepsize is  0.300000

                             Maximum     Tolerance    Cnvgd?
         Gradient           0.002999      0.000300      NO
         Displacement       0.109759      0.001200      NO
         Energy change     -0.000537      0.000001      NO


 New Cartesian Coordinates Obtained by Inverse Iteration

 Displacement from previous Coordinates is:  0.481501
 ----------------------------------------------------
       Standard Nuclear Orientation (Angstroms)
    I     Atom         X            Y            Z
 ----------------------------------------------------
    1      C      -0.845535    -0.004289    -0.066614
    2      H       0.227034    -0.188220    -1.006897
    3      C       1.349650    -0.449458    -0.199138
    4      H       1.626408    -1.493206    -0.400059
    5      O       2.410701     0.443581    -0.187446
    6      H       2.966269     0.312284    -0.962642
    7      C      -1.368196     1.407406    -0.160693
    8      H      -2.068964     1.520898    -0.996849
    9      H      -0.548725     2.126394    -0.295924
   10      H      -1.899813     1.688038     0.764851
   11      C      -1.858740    -1.118658    -0.175163
   12      H      -2.510148    -0.986019    -1.047964
   13      H      -1.371410    -2.099635    -0.256436
   14      H      -2.505028    -1.149915     0.719743
   15      C       0.323577    -0.227094     0.905348
   16      H       0.194476    -1.075523     1.586894
   17      H       0.573416     0.665687     1.492230
 ----------------------------------------------------
 Molecular Point Group                 C1    NOp =  1
 Largest Abelian Subgroup              C1    NOp =  1
 Nuclear Repulsion Energy =   247.3164510971 hartrees
 There are       25 alpha and       24 beta electrons
 Applying Cartesian multipole field
    Component          Value
    ---------          -----
     (2,0,0)        1.00000E-11
     (0,2,0)        2.00000E-11
     (0,0,2)       -3.00000E-11
 Nucleus-field energy     =     0.0000000059 hartrees
 Requested basis set is non-standard
 There are 138 shells and 314 basis functions
 A cutoff of  1.0D-11 yielded   8978 shell pairs
 There are     46290 function pairs (     55625 Cartesian)
 Smallest overlap matrix eigenvalue = 1.91E-05
 Guess MOs from SCF MO coefficient file
Reading MOs from coefficient file
Reading MOs from coefficient file
 An unrestricted hybrid HF-DFT SCF calculation will be
 performed using Pulay DIIS extrapolation
 Exchange:     0.5679 Hartree-Fock + 1.0000 M08SO
 SCF converges when DIIS error is below 1.0E-08
Geometry optimization detected.  Setting ReadMinima to 0
Setting SaveMinima to 0
 ---------------------------------------
  Cycle       Energy         DIIS Error
 ---------------------------------------
    1    -272.1459944103      7.81E-04
    2    -272.1427932762      8.59E-05
    3    -272.1429617924      4.78E-05
    4    -272.1429870174      2.60E-05
    5    -272.1429961693      5.22E-06
    6    -272.1429967954      1.66E-06
    7    -272.1429969193      7.86E-07
    8    -272.1429969696      3.33E-07
    9    -272.1429969789      1.74E-07
   10    -272.1429969812      5.68E-08
   11    -272.1429969815      2.05E-08
   12    -272.1429969817      9.46E-09 Convergence criterion met
 ---------------------------------------
 <S^2> = 0.7625
 SCF time:  CPU 810.91 s  wall 817.21 s
 SCF   energy in the final basis set = -272.1429969817
 Total energy in the final basis set = -272.1429969817
 Analysis of SCF Wavefunction
 
 --------------------------------------------------------------
                    Orbital Energies (a.u.)
 --------------------------------------------------------------
 
 Alpha MOs
 -- Occupied --
-19.583 -10.553 -10.509 -10.489 -10.487 -10.485  -1.157  -0.922
 -0.824  -0.781  -0.699  -0.643  -0.608  -0.555  -0.516  -0.508
 -0.487  -0.483  -0.459  -0.436  -0.420  -0.405  -0.383  -0.351
 -0.205
 -- Virtual --
 -0.027  -0.015  -0.008  -0.005   0.012   0.018   0.021   0.025
  0.025   0.046   0.057   0.062   0.067   0.075   0.082   0.091
  0.097   0.112   0.120   0.124   0.129   0.134   0.138   0.140
  0.148   0.151   0.155   0.162   0.174   0.176   0.185   0.195
  0.200   0.205   0.213   0.218   0.239   0.242   0.255   0.272
  0.291   0.293   0.297   0.303   0.320   0.327   0.342   0.354
  0.364   0.371   0.398   0.431   0.444   0.466   0.473   0.498
  0.509   0.518   0.529   0.537   0.555   0.564   0.568   0.570
  0.575   0.585   0.592   0.597   0.610   0.620   0.631   0.634
  0.641   0.652   0.676   0.684   0.701   0.706   0.719   0.733
  0.763   0.771   0.798   0.830   0.844   0.858   0.883   0.926
  0.934   0.951   0.980   0.983   0.995   1.009   1.027   1.046
  1.055   1.094   1.100   1.103   1.137   1.144   1.150   1.168
  1.181   1.202   1.206   1.227   1.240   1.256   1.269   1.283
  1.290   1.302   1.315   1.316   1.331   1.341   1.352   1.373
  1.388   1.398   1.407   1.414   1.418   1.450   1.461   1.480
  1.488   1.499   1.527   1.540   1.548   1.568   1.576   1.584
  1.614   1.626   1.634   1.678   1.692   1.736   1.748   1.794
  1.930   2.060   2.129   2.244   2.302   2.381   2.440   2.451
  2.505   2.512   2.534   2.591   2.657   2.678   2.697   2.707
  2.728   2.749   2.771   2.806   2.846   2.875   2.909   2.938
  2.945   2.955   2.975   2.983   2.997   3.019   3.033   3.052
  3.074   3.104   3.143   3.155   3.166   3.174   3.196   3.228
  3.241   3.255   3.290   3.292   3.317   3.332   3.357   3.371
  3.382   3.414   3.423   3.446   3.459   3.485   3.509   3.542
  3.555   3.572   3.612   3.626   3.646   3.655   3.689   3.699
  3.723   3.732   3.757   3.773   3.792   3.808   3.859   3.870
  3.880   3.888   3.913   3.960   3.968   3.988   4.015   4.040
  4.051   4.070   4.086   4.096   4.123   4.127   4.151   4.162
  4.167   4.181   4.194   4.222   4.257   4.305   4.326   4.348
  4.371   4.385   4.397   4.423   4.447   4.459   4.477   4.525
  4.535   4.553   4.563   4.603   4.642   4.706   4.756   4.780
  4.808   4.875   5.023   5.137   5.152   5.200   5.215   5.322
  5.400   5.414   5.479   5.509   5.562   5.586   5.606   5.636
  5.644   5.674   5.761   5.945   6.521   6.933   7.116   7.130
  7.196   7.489   7.603  23.950  24.097  24.195  24.233  24.277
 49.800
 
 Beta MOs
 -- Occupied --
-19.580 -10.541 -10.496 -10.490 -10.488 -10.485  -1.150  -0.915
 -0.819  -0.780  -0.691  -0.630  -0.601  -0.541  -0.508  -0.503
 -0.478  -0.469  -0.453  -0.434  -0.414  -0.406  -0.383  -0.331
 -- Virtual --
 -0.031  -0.023  -0.013  -0.008   0.000   0.006   0.014   0.019
  0.023   0.024   0.040   0.054   0.059   0.064   0.072   0.081
  0.089   0.095   0.110   0.117   0.123   0.128   0.132   0.137
  0.139   0.147   0.151   0.154   0.160   0.173   0.181   0.186
  0.198   0.201   0.210   0.214   0.221   0.239   0.244   0.258
  0.276   0.294   0.296   0.297   0.308   0.322   0.334   0.345
  0.361   0.373   0.380   0.401   0.433   0.446   0.466   0.477
  0.503   0.510   0.521   0.535   0.540   0.558   0.568   0.573
  0.575   0.581   0.586   0.597   0.608   0.617   0.626   0.642
  0.645   0.654   0.663   0.679   0.693   0.703   0.707   0.723
  0.739   0.768   0.781   0.802   0.832   0.848   0.863   0.887
  0.928   0.939   0.956   0.985   0.988   0.999   1.012   1.031
  1.051   1.058   1.097   1.105   1.109   1.143   1.147   1.154
  1.171   1.188   1.211   1.214   1.232   1.249   1.265   1.278
  1.289   1.301   1.311   1.322   1.335   1.342   1.349   1.357
  1.386   1.396   1.404   1.410   1.423   1.425   1.453   1.466
  1.484   1.497   1.506   1.536   1.544   1.555   1.571   1.580
  1.586   1.623   1.634   1.646   1.686   1.705   1.749   1.767
  1.803   1.938   2.068   2.138   2.247   2.307   2.389   2.455
  2.459   2.517   2.531   2.551   2.604   2.671   2.706   2.714
  2.725   2.802   2.815   2.832   2.837   2.892   2.908   2.916
  2.939   2.960   2.972   2.991   3.013   3.031   3.056   3.062
  3.070   3.102   3.144   3.147   3.176   3.180   3.189   3.214
  3.245   3.253   3.282   3.299   3.312   3.323   3.348   3.366
  3.381   3.415   3.429   3.455   3.471   3.491   3.515   3.540
  3.557   3.580   3.586   3.629   3.658   3.669   3.680   3.705
  3.716   3.745   3.751   3.779   3.796   3.814   3.821   3.880
  3.889   3.896   3.904   3.940   3.976   3.978   3.998   4.031
  4.038   4.055   4.089   4.098   4.108   4.138   4.143   4.162
  4.172   4.178   4.190   4.202   4.243   4.285   4.324   4.341
  4.356   4.381   4.394   4.403   4.450   4.470   4.504   4.520
  4.551   4.559   4.571   4.584   4.634   4.684   4.690   4.812
  4.867   4.882   4.938   5.082   5.150   5.169   5.214   5.252
  5.357   5.447   5.502   5.518   5.520   5.579   5.590   5.610
  5.638   5.649   5.679   5.760   5.944   6.522   6.934   7.120
  7.133   7.198   7.485   7.593  23.958  24.103  24.199  24.241
 24.291  49.803
 --------------------------------------------------------------
 
          Ground-State Mulliken Net Atomic Charges

     Atom                 Charge (a.u.)    Spin (a.u.)
  --------------------------------------------------------
      1 C                     0.547743       0.557811
      2 H                     0.138120      -0.106489
      3 C                    -0.387959       0.505134
      4 H                     0.210812       0.010031
      5 O                    -0.283530       0.040281
      6 H                     0.288231      -0.003032
      7 C                    -0.781040      -0.032453
      8 H                     0.191253       0.000307
      9 H                     0.210285       0.009241
     10 H                     0.197046       0.036530
     11 C                    -0.820023      -0.028149
     12 H                     0.192594       0.000431
     13 H                     0.187527       0.005968
[...]
 C          0.031 -0.043 -0.009    0.066  0.027 -0.094   -0.007 -0.018 -0.021
 H         -0.032 -0.109  0.001   -0.182  0.172  0.171    0.005  0.063  0.017
 H         -0.007  0.033  0.020   -0.057  0.269  0.217    0.007 -0.046  0.035
 H         -0.021 -0.133 -0.010   -0.031 -0.472  0.016    0.042 -0.052  0.017
 C         -0.023 -0.053 -0.025    0.054 -0.014 -0.097   -0.018 -0.010 -0.007
 H         -0.045  0.035  0.040   -0.229  0.013  0.133   -0.048 -0.024  0.007
 H         -0.211 -0.086 -0.015   -0.187 -0.114  0.168   -0.043 -0.018  0.004
 H          0.032  0.087  0.014    0.380  0.239  0.146   -0.019 -0.007 -0.006
 C          0.002 -0.001 -0.056   -0.019  0.023 -0.059   -0.001 -0.016  0.024
 H         -0.404  0.136  0.008    0.210 -0.031 -0.026   -0.299  0.097  0.110
 H          0.675 -0.182 -0.164   -0.124  0.048 -0.036   -0.095  0.063  0.012
 TransDip   0.000  0.000  0.000    0.000  0.000  0.000    0.000  0.000  0.000

 Mode:                22                     23                     24
 Frequency:      1223.99                1227.70                1262.18
 Force Cnst:      1.2942                 1.4167                 1.6722
 Red. Mass:       1.4662                 1.5953                 1.7815
 IR Active:          YES                    YES                    YES
 IR Intens:        0.000                  0.000                  0.000
 Raman Active:       YES                    YES                    YES
               X      Y      Z        X      Y      Z        X      Y      Z
 C         -0.113 -0.034 -0.081   -0.017  0.092 -0.020   -0.062  0.189 -0.038
 H         -0.105 -0.386 -0.051    0.136  0.311  0.061    0.088  0.430  0.064
 C          0.006 -0.012  0.002    0.073  0.081  0.050   -0.031 -0.096 -0.053
 H          0.373  0.237 -0.286   -0.085 -0.038  0.218    0.179 -0.036 -0.008
 O          0.009 -0.012  0.010   -0.047 -0.075 -0.066    0.020  0.040  0.027
 H         -0.071 -0.091 -0.056    0.338  0.495  0.275   -0.140 -0.207 -0.117
 C          0.041  0.020  0.051    0.017 -0.033 -0.014    0.033 -0.051 -0.013
 H         -0.031 -0.189 -0.022   -0.022 -0.075 -0.008   -0.060 -0.203 -0.027
 H         -0.029  0.159 -0.078    0.011 -0.027  0.005    0.046 -0.094 -0.020
 H         -0.127  0.084 -0.059   -0.004 -0.123  0.000   -0.058 -0.214 -0.013
 C          0.049  0.003  0.011    0.003 -0.039  0.021    0.013 -0.068  0.034
 H          0.135  0.113  0.011    0.074  0.076  0.028    0.112  0.144  0.065
 H          0.054  0.019 -0.026   -0.110 -0.032 -0.071   -0.176 -0.052 -0.123
 H          0.076  0.091  0.026   -0.079  0.055 -0.038   -0.144  0.128 -0.079
 C         -0.083  0.061  0.052   -0.088 -0.041  0.012    0.030 -0.014  0.043
 H          0.359 -0.110 -0.084    0.178 -0.078  0.128    0.438 -0.138  0.012
 H          0.414 -0.187  0.051    0.446 -0.093 -0.126   -0.394  0.085  0.123
 TransDip   0.000  0.000  0.000    0.000  0.000  0.000    0.000  0.000  0.000

 Mode:                25                     26                     27
 Frequency:      1293.62                1336.05                1383.38
 Force Cnst:      2.0576                 1.4703                 1.6324
 Red. Mass:       2.0869                 1.3980                 1.4477
 IR Active:          YES                    YES                    YES
 IR Intens:        0.000                  0.000                  0.000
 Raman Active:       YES                    YES                    YES
               X      Y      Z        X      Y      Z        X      Y      Z
 C          0.190 -0.050  0.069   -0.096 -0.122 -0.037   -0.039 -0.026 -0.018
 H          0.127  0.316  0.030    0.200  0.654  0.098   -0.017 -0.092 -0.008
 C          0.025 -0.053 -0.043    0.057 -0.019 -0.048    0.110  0.042 -0.059
 H          0.051 -0.048 -0.069   -0.116 -0.182  0.186   -0.359 -0.220  0.110
 O          0.001  0.025  0.020   -0.019  0.012  0.009   -0.025  0.007  0.024
 H         -0.154 -0.220 -0.119   -0.111 -0.148 -0.074   -0.177 -0.230 -0.112
 C         -0.061  0.012 -0.034    0.036  0.003 -0.001    0.000  0.103  0.026
 H          0.095  0.197 -0.030   -0.043  0.118  0.103   -0.052 -0.335 -0.169
 H          0.014 -0.131  0.073   -0.071  0.231 -0.008    0.183 -0.318 -0.119
 H          0.193  0.001  0.097   -0.075  0.108 -0.082   -0.110 -0.353  0.074
 C         -0.060  0.021 -0.006   -0.013  0.013  0.013    0.071  0.038  0.007
 H         -0.104 -0.163 -0.071    0.216  0.140 -0.068   -0.167 -0.146  0.066
 H         -0.005  0.008  0.051    0.275  0.065  0.021   -0.237 -0.026  0.025
 H         -0.045 -0.195  0.001    0.152  0.057  0.115   -0.160 -0.142 -0.133
 C         -0.181  0.078  0.005    0.009  0.028  0.025   -0.018 -0.002  0.015
 H          0.603 -0.184 -0.141   -0.136  0.059  0.025   -0.045  0.040  0.146
 H          0.251 -0.065 -0.047    0.099 -0.147  0.113    0.075 -0.136  0.083
 TransDip   0.000  0.000  0.000    0.000  0.000  0.000    0.000  0.000  0.000

 Mode:                28                     29                     30
 Frequency:      1394.25                1396.70                1448.88
 Force Cnst:      1.6463                 1.6111                 1.3901
 Red. Mass:       1.4374                 1.4018                 1.1239
 IR Active:          YES                    YES                    YES
 IR Intens:        0.000                  0.000                  0.000
 Raman Active:       YES                    YES                    YES
               X      Y      Z        X      Y      Z        X      Y      Z
 C          0.042  0.079  0.016    0.018 -0.062  0.014    0.016 -0.007 -0.007
 H         -0.094 -0.372 -0.050    0.076  0.219  0.025    0.002  0.015 -0.028
 C          0.079  0.047 -0.037   -0.079 -0.031  0.046   -0.037 -0.006  0.013
 H         -0.309 -0.141  0.021    0.277  0.163 -0.063    0.088  0.060 -0.012
 O         -0.015  0.003  0.020    0.013 -0.009 -0.021    0.006 -0.002 -0.005
 H         -0.123 -0.164 -0.077    0.131  0.172  0.086    0.042  0.059  0.027
 C         -0.017 -0.010 -0.001   -0.013  0.126  0.009   -0.010 -0.005 -0.007
 H          0.039 -0.066 -0.067   -0.051 -0.329 -0.201    0.025 -0.029 -0.042
 H          0.011 -0.066  0.032    0.213 -0.381 -0.082   -0.035  0.051  0.111
 H          0.078 -0.036  0.056   -0.058 -0.427  0.121    0.130  0.056  0.048
 C         -0.110 -0.080 -0.016   -0.059 -0.008 -0.011    0.005  0.000 -0.011
 H          0.282  0.295 -0.082    0.191  0.120 -0.108   -0.061  0.095  0.091
 H          0.422  0.041 -0.068    0.230  0.029  0.045    0.029 -0.028  0.135
 H          0.282  0.317  0.226    0.205  0.030  0.161   -0.082 -0.058 -0.064
 C         -0.026 -0.020 -0.002    0.023  0.017 -0.022    0.006  0.031 -0.085
 H          0.065 -0.001  0.159   -0.057  0.024 -0.073    0.136  0.199  0.615
 H         -0.023 -0.053  0.026   -0.037  0.024 -0.009   -0.127 -0.545  0.353
 TransDip   0.000  0.000  0.000    0.000  0.000  0.000    0.000  0.000  0.000

 Mode:                31                     32                     33
 Frequency:      1457.42                1463.21                1472.92
 Force Cnst:      1.3181                 1.3414                 1.3462
 Red. Mass:       1.0532                 1.0634                 1.0532
 IR Active:          YES                    YES                    YES
 IR Intens:        0.000                  0.000                  0.000
 Raman Active:       YES                    YES                    YES
               X      Y      Z        X      Y      Z        X      Y      Z
 C          0.003  0.012 -0.003   -0.018 -0.039 -0.001   -0.021  0.014  0.016
 H          0.001  0.001 -0.004    0.019  0.065  0.019   -0.014 -0.006  0.038
 C          0.004  0.000 -0.002   -0.003 -0.006  0.001   -0.002 -0.001  0.001
 H         -0.008 -0.008  0.004    0.019  0.002  0.001    0.011  0.006 -0.002
 O         -0.001  0.000  0.001    0.000  0.001 -0.001    0.000 -0.001  0.000
 H         -0.005 -0.003 -0.003    0.004  0.005  0.002    0.004  0.010  0.004
 C         -0.012 -0.014  0.032   -0.032  0.016 -0.003   -0.020 -0.019  0.032
 H          0.314  0.167 -0.114    0.252 -0.117 -0.267    0.445  0.164 -0.206
 H         -0.071  0.129 -0.382   -0.102  0.189  0.105   -0.129  0.242 -0.397
 H         -0.071 -0.194  0.034    0.346 -0.101  0.220    0.036 -0.257  0.108
 C         -0.002 -0.013 -0.047    0.029 -0.027  0.014   -0.004  0.021  0.025
 H         -0.046  0.436  0.251   -0.312 -0.029  0.240    0.174 -0.298 -0.280
 H          0.125 -0.124  0.518    0.270  0.094 -0.249   -0.233  0.041 -0.259
 H         -0.133 -0.211 -0.111   -0.238  0.450 -0.175    0.212 -0.044  0.160
 C         -0.001 -0.006  0.013    0.004  0.004  0.010    0.006  0.002 -0.017
 H         -0.014 -0.031 -0.080   -0.048 -0.011 -0.092    0.020  0.033  0.100
 H          0.015  0.074 -0.048    0.033  0.053 -0.033   -0.041 -0.078  0.054
 TransDip   0.000  0.000  0.000    0.000  0.000  0.000    0.000  0.000  0.000

 Mode:                34                     35                     36
 Frequency:      1477.05                1737.79                2928.20
 Force Cnst:      1.3740                 1.8592                 5.3069
 Red. Mass:       1.0689                 1.0449                 1.0505
 IR Active:          YES                    YES                    YES
 IR Intens:        0.000                  0.000                  0.000
 Raman Active:       YES                    YES                    YES
               X      Y      Z        X      Y      Z        X      Y      Z
 C         -0.044  0.016 -0.026    0.011 -0.001 -0.029    0.001  0.000 -0.001
 H         -0.003 -0.001  0.003    0.057 -0.159  0.980   -0.006  0.002  0.003
 C          0.011  0.001 -0.004   -0.012  0.008 -0.025    0.000  0.000  0.000
 H         -0.023 -0.019  0.010    0.028  0.006  0.043    0.001  0.001  0.001
 O         -0.001  0.001  0.001    0.000 -0.002  0.002    0.000  0.000  0.000
 H         -0.009 -0.016 -0.006   -0.001 -0.015 -0.001    0.000  0.000 -0.001
 C         -0.023  0.001 -0.026   -0.001  0.000  0.004   -0.004  0.006  0.006
 H          0.068 -0.283 -0.228   -0.012 -0.011  0.003    0.027 -0.020  0.041
 H         -0.093  0.167  0.434    0.004 -0.012  0.005   -0.046 -0.018  0.002
 H          0.478  0.067  0.223   -0.002  0.022 -0.007    0.061 -0.027 -0.117
 C          0.001  0.023 -0.010   -0.002  0.000  0.005    0.047  0.011 -0.038
 H          0.221  0.085 -0.122    0.007  0.017  0.007   -0.134  0.115 -0.215
 H         -0.199 -0.085  0.249    0.012  0.002  0.009    0.061 -0.272 -0.081
 H          0.135 -0.348  0.090   -0.022 -0.013 -0.013   -0.502  0.016  0.748
 C          0.012 -0.010  0.021   -0.002  0.005 -0.039    0.000  0.000  0.001
 H         -0.043 -0.031 -0.096    0.005  0.016 -0.011    0.004  0.009 -0.002
 H          0.016  0.089 -0.046   -0.003  0.009 -0.046   -0.002 -0.006 -0.007
 TransDip   0.000  0.000  0.000    0.000  0.000  0.000    0.000  0.000  0.000

 Mode:                37                     38                     39
 Frequency:      2936.69                2998.33                3006.15
 Force Cnst:      5.3270                 5.6266                 5.7647
 Red. Mass:       1.0484                 1.0623                 1.0827
 IR Active:          YES                    YES                    YES
 IR Intens:        0.000                  0.000                  0.000
 Raman Active:       YES                    YES                    YES
               X      Y      Z        X      Y      Z        X      Y      Z
 C          0.001  0.000 -0.001   -0.002  0.000  0.000    0.001  0.000 -0.001
 H         -0.008  0.001  0.003   -0.002 -0.001 -0.003   -0.002 -0.001  0.003
 C          0.000 -0.001  0.000   -0.011  0.030  0.012   -0.007  0.015  0.006
 H         -0.002  0.005  0.003    0.149 -0.363 -0.128    0.074 -0.179 -0.064
 O          0.000  0.000  0.000    0.000  0.000 -0.001    0.000  0.000  0.000
 H          0.000  0.000 -0.001    0.001  0.001  0.003    0.001  0.001  0.001
 C          0.023 -0.036 -0.042   -0.003 -0.001  0.004    0.000  0.000  0.001
 H         -0.159  0.120 -0.245   -0.015  0.009 -0.019   -0.005  0.002 -0.006
 H          0.280  0.118 -0.012    0.038  0.017  0.002    0.003  0.000  0.001
 H         -0.396  0.200  0.764    0.015 -0.010 -0.026    0.004  0.000 -0.008
 C          0.007  0.002 -0.006   -0.001  0.002  0.003    0.003 -0.039 -0.070
 H         -0.018  0.015 -0.029   -0.005  0.005 -0.007    0.286 -0.233  0.381
 H          0.008 -0.039 -0.011    0.007 -0.030 -0.006   -0.127  0.701  0.157
 H         -0.081  0.000  0.116    0.016  0.000 -0.021   -0.212 -0.005  0.300
 C          0.000  0.000  0.001    0.000 -0.023  0.056    0.000  0.000 -0.004
 H          0.004  0.010 -0.002    0.169  0.610 -0.178   -0.008 -0.024  0.007
 H          0.000 -0.008 -0.007   -0.168 -0.340 -0.493    0.014  0.027  0.039
 TransDip   0.000  0.000  0.000    0.000  0.000  0.000    0.000  0.000  0.000

 Mode:                40                     41                     42
 Frequency:      3011.93                3012.17                3044.86
 Force Cnst:      5.7932                 5.8034                 6.0181
 Red. Mass:       1.0839                 1.0856                 1.1017
 IR Active:          YES                    YES                    YES
 IR Intens:        0.000                  0.000                  0.000
 Raman Active:       YES                    YES                    YES
               X      Y      Z        X      Y      Z        X      Y      Z
 C          0.000  0.000 -0.001   -0.001  0.001  0.001    0.000  0.001 -0.001
 H          0.003  0.002 -0.003    0.004  0.000 -0.005   -0.001 -0.001  0.001
 C          0.022 -0.049 -0.020    0.019 -0.041 -0.017    0.000 -0.001  0.000
 H         -0.243  0.585  0.208   -0.203  0.491  0.174   -0.003  0.006  0.003
 O          0.000  0.000  0.001    0.000  0.000  0.001    0.000  0.000  0.000
 H         -0.005 -0.004 -0.002   -0.003 -0.003 -0.002    0.000  0.000  0.000
 C          0.020  0.022 -0.042   -0.026 -0.028  0.054    0.013  0.000  0.006
 H          0.225 -0.163  0.299   -0.282  0.204 -0.375   -0.051  0.037 -0.073
 H         -0.354 -0.160 -0.013    0.443  0.200  0.017   -0.102 -0.048  0.001
 H         -0.111  0.063  0.214    0.150 -0.085 -0.286    0.002  0.001  0.002
 C         -0.001 -0.006 -0.012    0.000 -0.004 -0.009   -0.040  0.071 -0.038
 H          0.056 -0.043  0.074    0.043 -0.036  0.058    0.408 -0.317  0.577
 H         -0.021  0.119  0.027   -0.015  0.079  0.016    0.098 -0.557 -0.148
 H         -0.032 -0.001  0.044   -0.026  0.001  0.038   -0.036  0.019  0.030
 C          0.002  0.000  0.028    0.002  0.002  0.018   -0.005 -0.013 -0.005
 H          0.052  0.174 -0.051    0.028  0.089 -0.026    0.029  0.095 -0.030
 H         -0.089 -0.175 -0.255   -0.061 -0.115 -0.169    0.031  0.061  0.096
 TransDip   0.000  0.000  0.000    0.000  0.000  0.000    0.000  0.000  0.000

 Mode:                43                     44                     45
 Frequency:      3049.59                3055.26                3882.88
 Force Cnst:      6.0417                 6.0851                 9.4720
 Red. Mass:       1.1026                 1.1064                 1.0663
 IR Active:          YES                    YES                    YES
 IR Intens:        0.000                  0.000                  0.000
 Raman Active:       YES                    YES                    YES
               X      Y      Z        X      Y      Z        X      Y      Z
 C         -0.001  0.000 -0.001    0.000 -0.001  0.000    0.000  0.000  0.000
 H         -0.001  0.000  0.001    0.000  0.000  0.000   -0.003 -0.001  0.000
 C          0.000  0.002  0.001    0.003 -0.010 -0.004    0.000 -0.001 -0.001
 H          0.010 -0.022 -0.007   -0.047  0.109  0.040   -0.002 -0.002  0.000
 O          0.000  0.000  0.000    0.000  0.000  0.000    0.037  0.006 -0.050
 H          0.000  0.000  0.000    0.001  0.001 -0.001   -0.585 -0.078  0.805
 C         -0.079 -0.002 -0.040   -0.020  0.000 -0.009    0.000  0.000  0.000
 H          0.344 -0.270  0.495    0.084 -0.065  0.121    0.000  0.000  0.000
 H          0.626  0.290 -0.003    0.158  0.075 -0.002    0.001  0.000  0.000
 H         -0.018 -0.001 -0.010   -0.004  0.001 -0.006    0.000  0.001  0.000
 C         -0.007  0.013 -0.007    0.005 -0.009  0.004    0.000  0.000  0.000
 H          0.077 -0.057  0.108   -0.045  0.037 -0.065    0.000  0.000  0.000
 H          0.018 -0.102 -0.026   -0.011  0.077  0.022    0.000  0.000  0.000
 H         -0.006  0.004  0.005    0.003 -0.002  0.000   -0.001  0.000  0.000
 C          0.007  0.018  0.005   -0.029 -0.082 -0.026    0.000  0.000  0.000
 H         -0.042 -0.151  0.049    0.178  0.637 -0.204    0.001 -0.001  0.000
 H         -0.035 -0.072 -0.109    0.174  0.340  0.528    0.000  0.001  0.002
 TransDip   0.000  0.000  0.000    0.000  0.000  0.000    0.000  0.000  0.000

 STANDARD THERMODYNAMIC QUANTITIES AT   298.15 K  AND     1.00 ATM

   This Molecule has  1 Imaginary Frequencies
   Zero point vibrational energy:       90.353 kcal/mol

   Atom    1 Element C  Has Mass   12.00000
   Atom    2 Element H  Has Mass    1.00783
   Atom    3 Element C  Has Mass   12.00000
   Atom    4 Element H  Has Mass    1.00783
   Atom    5 Element O  Has Mass   15.99491
   Atom    6 Element H  Has Mass    1.00783
   Atom    7 Element C  Has Mass   12.00000
   Atom    8 Element H  Has Mass    1.00783
   Atom    9 Element H  Has Mass    1.00783
   Atom   10 Element H  Has Mass    1.00783
   Atom   11 Element C  Has Mass   12.00000
   Atom   12 Element H  Has Mass    1.00783
   Atom   13 Element H  Has Mass    1.00783
   Atom   14 Element H  Has Mass    1.00783
   Atom   15 Element C  Has Mass   12.00000
   Atom   16 Element H  Has Mass    1.00783
   Atom   17 Element H  Has Mass    1.00783
   Molecular Mass:    87.081040 amu
   Principal axes and moments of inertia in atomic units:
                             1           2           3
    Eigenvalues --      310.29068   816.19207   981.72652
          X               0.99997    -0.00609    -0.00402
          Y               0.00612     0.99996     0.00665
          Z               0.00398    -0.00668     0.99997
   Rotational Symmetry Number is   1
   The Molecule is an Asymmetric Top
   Translational Enthalpy:        0.889 kcal/mol
   Rotational Enthalpy:           0.889 kcal/mol
   Vibrational Enthalpy:         93.585 kcal/mol
   gas constant (RT):             0.592 kcal/mol
   Translational Entropy:        39.306  cal/mol.K
   Rotational Entropy:           27.010  cal/mol.K
   Vibrational Entropy:          19.116  cal/mol.K

   Total Enthalpy:               95.955 kcal/mol
   Total Entropy:                85.432  cal/mol.K
Archival summary:
1\1\node29\FREQ\ProcedureUnspecified\BasisUnspecified\1511(2)\edames\MonApr2110:06:152014MonApr2110:06:152014\0\\#,FREQ,ProcedureUnspecified,BasisUnspecified,\\0,2\C\H,1,1.43239\C,2,1.42559,1,103.363\H,3,1.09798,2,112.955,1,-125.957,0\O,3,1.38926,2,112.699,1,101.781,0\H,5,0.962864,3,110.17,2,80.4818,0\C,1,1.50815,2,114.259,3,125.076,0\H,7,1.09758,1,111.324,2,75.8485,0\H,7,1.09841,1,111.587,2,-45.2912,0\H,7,1.10495,1,110.719,2,-164.703,0\C,1,1.50993,2,106.702,3,-104.213,0\H,11,1.09771,1,111.502,2,-79.172,0\H,11,1.09862,1,110.86,2,42.0581,0\H,11,1.1045,1,110.584,2,161.094,0\C,3,1.52184,2,80.8712,1,-8.96916,0\H,15,1.09663,3,112.372,2,-108.658,0\H,15,1.09787,3,112.691,2,127.649,0\\\@

 Total job time:  53504.29s(wall), 52896.93s(cpu) 
 Mon Apr 21 10:06:15 2014

        *************************************************************
        *                                                           *
        *  Thank you very much for using Q-Chem.  Have a nice day.  *
        *                                                           *
        *************************************************************


0 sent ACK to 0 
now end server 0 ... 
cleanup process ... done
remove work dirs /tmp/qchem14303.0 -- /tmp/qchem14303.3
rm -rf /tmp/qchem14303.0
rm -rf /tmp/qchem14303.1
rm -rf /tmp/qchem14303.2
rm -rf /tmp/qchem14303.3
rm -rf /tmp/qchem14303
