
Running Job 1 of 2 ts25.in
qchem ts25.in_31356.0 /tmp/qchem31356/ 4
/opt/qchem/bin/mpi/mpirun_qchem -machinefile /tmp/296735.1.normal1/hostfile -np 4 /opt/qchem/exe/qcprog.exe ts25.in_31356.0 /tmp/qchem31356/

Process 0 of 4 is on node27.cluster - thread support 0
Process 1 of 4 is on node27.cluster - thread support 0
Process 3 of 4 is on node27.cluster - thread support 0
Process 2 of 4 is on node27.cluster - thread support 0
initial socket setup ...start
initial socket setup ...done 
now start server 0 ... 
                  Welcome to Q-Chem
     A Quantum Leap Into The Future Of Chemistry

 Y. Shao, L. Fusti-Molnar, Y. Jung, J. Kussmann, C. Ochsenfeld, S. T. Brown, 
 A. T. B. Gilbert, L. V. Slipchenko, S. V. Levchenko, D. P. O'Neill, 
 R. A. DiStasio Jr., R. C. Lochan, T. Wang, G. J. O. Beran, N. A. Besley, 
 J. M. Herbert, C. Y. Lin, T. Van Voorhis, S. H. Chien, A. Sodt, R. P. Steele, 
 V. A. Rassolov, P. E. Maslen, P. P. Korambath, R. D. Adamson, B. Austin, 
 J. Baker, E. F. C. Byrd, H. Dachsel, R. J. Doerksen, A. Dreuw, B. D. Dunietz, 
 A. D. Dutoi, T. R. Furlani, S. R. Gwaltney, A. Heyden, S. Hirata, C.-P. Hsu, 
 G. Kedziora, R. Z. Khaliullin, P. Klunzinger, A. M. Lee, M. S. Lee, W. Liang, 
 I. Lotan, N. Nair, B. Peters, E. I. Proynov, P. A. Pieniazek, Y. M. Rhee, 
 J. Ritchie, E. Rosta, C. D. Sherrill, A. C. Simmonett, J. E. Subotnik, 
 H. L. Woodcock III, W. Zhang, A. T. Bell, A. K. Chakraborty, D. M. Chipman, 
 F. J. Keil, A. Warshel, W. J. Hehre, H. F. Schaefer III, J. Kong, 
 A. I. Krylov, P. M. W. Gill, M. Head-Gordon

 Additional authors for Version 3.1: 
 Z. Gan, Y. Zhao, N. E. SchultzD. Truhlar, E. Epifanovsky, M. Oana

 Additional authors for Version 3.2: 
 R. Baer, B. R. Brooks, D. Casanova, J.-D. Chai, C.-L. Cheng, C. Cramer, 
 D. Crittenden, A. Ghysels, G. Hawkins, E. G. Hohenstein, C. Kelley, 
 W. Kurlancheek, D. Liotard, E. Livshits, P. Manohar, A. Marenich, 
 D. Neuhauser, R. Olson, M. A. Rohrdanz, K. S. Thanthiriwatte, A. J. W. Thom, 
 V. Vanovschi, C. F. Williams, Q. Wu, Z.-Q. You

 Additional authors for Version 4.0: 
 A. Aspuru-Guzik, Y. Bernard, C. Chang, J. Deng, A. Dreuw, M. Diedenhofen, 
 R. G. Edgar, D. Ghosh, W. A. Goddard III, M. Goldey, L. D. Jacobson, 
 M. Gordon, B. Kaduk, I. Kaliman, K. Khistyaev, R. King, A. Klamt, 
 D. Kosenkov, T. Kus, D. Lambrecht, A. Landau, A. W. Lange, K. Lawler, F. Liu, 
 J. Liu, R. Olivares-Amaya, S. P. Mao, J. Parkhill, N. Russ, M. Schmidt, 
 N. Shenvi, D. Small, Y. C. Su, E. Sundstrom, L. Vogt, O. Vydrov, M. Watson, 
 M. Wormit, X. Xu, S. Yeganeh, I. Y. Zhang, D. Zuev

 Additional authors for Version 4.1: 
 X. Feng, M. W. D. Hanson-Heine, P. Horn, H. Ji, A. Laurent, R. Peverati, 
 N. Mardirossian, N. Sergueev, S. Sharada, P. Zimmerman


 Q-Chem, Version 4.1, Q-Chem, Inc., Pittsburgh, PA (2013).

 Intel X86 Linux Version 4.1.0.1 

 Q-chem begins on Mon Apr 21 14:27:41 2014  

Host: 
0

     Scratch files written to /tmp/qchem31356.0//
 Oct1213 14483_epif 4150   
 Parallel job on  4  processors
Processing $rem in /opt/qchem/config/preferences.
 MEM_TOTAL  2000 
Warning: disabling incdft.
 Q-Chem warning in module /home/scratch/svnadmin/14483_epif/qchem/forms1/BasisType.C, line 1125:

 Setting pure/cartesian flag to 2111 for general basis


Finally everything over in PARseQInput

--------------------------------------------------------------
User input:
--------------------------------------------------------------
$rem
XC_GRID 000075000434
JOBTYPE ts
EXCHANGE M08SO
BASIS gen
GUI=2
UNRESTRICTED TRUE
CORRELATION NONE
$end

$comment
c5h11o-2
$end

$molecule
0 2
C
H  1 1.094228
C  1 1.515384 2 108.415122
H  3 1.084254 1 118.743288 2 -29.571784 0
H  3 1.089313 1 114.698879 2 -168.205421 0
H  3 1.425343 1 92.023701 2 85.863942 0
C  6 1.339708 3 130.768532 1 10.291818 0
H  7 1.088902 6 103.609094 3 -102.544010 0
O  7 1.380846 6 116.720005 3 137.930598 0
H  9 0.960367 7 109.334879 6 -68.839014 0
C  7 1.512907 6 93.109386 3 13.715520 0
H  11 1.091764 7 114.102298 6 -155.128754 0
H  11 1.097090 7 108.616317 6 84.941923 0
C  1 1.524592 2 108.839037 3 -125.265517 0
H  14 1.089178 1 111.273564 2 58.834218 0
H  14 1.091237 1 111.179705 2 -61.767754 0
H  14 1.091727 1 110.133044 2 178.413384 0
$end

$basis
H  0
S  3 1.00
3.386500000000E+01 2.549380000000E-02
5.094790000000E+00 1.903730000000E-01
1.158790000000E+00 8.521610000000E-01
S  1 1.00
3.258400000000E-01 1.000000000000E+00
S  1 1.00
1.027410000000E-01 1.000000000000E+00
S  1 1.00
3.600000000000E-02 1.000000000000E+00
P  1 1.00
1.500000000000E+00 1.000000000000E+00
P  1 1.00
3.750000000000E-01 1.000000000000E+00
****
C 0
S  6 1.00
4.563240000000E+03 1.966650000000E-03
6.820240000000E+02 1.523060000000E-02
1.549730000000E+02 7.612690000000E-02
4.445530000000E+01 2.608010000000E-01
1.302900000000E+01 6.164620000000E-01
1.827730000000E+00 2.210060000000E-01
S  3 1.00
2.096420000000E+01 1.146600000000E-01
4.803310000000E+00 9.199990000000E-01
1.459330000000E+00 -3.030680000000E-03
S  1 1.00
4.834560000000E-01 1.000000000000E+00
S  1 1.00
1.455850000000E-01 1.000000000000E+00
S  1 1.00
4.380000000000E-02 1.000000000000E+00
P  3 1.00
2.096420000000E+01 4.024870000000E-02
4.803310000000E+00 2.375940000000E-01
1.459330000000E+00 8.158540000000E-01
P  1 1.00
4.834560000000E-01 1.000000000000E+00
P  1 1.00
1.455850000000E-01 1.000000000000E+00
P  1 1.00
4.380000000000E-02 1.000000000000E+00
D  1 1.00
1.252000000000E+00 1.000000000000E+00
D  1 1.00
3.130000000000E-01 1.000000000000E+00
F  1 1.00
8.000000000000E-01 1.000000000000E+00
****
O  0
S  6 1.00
8.588500000000E+03 1.895150000000E-03
1.297230000000E+03 1.438590000000E-02
2.992960000000E+02 7.073200000000E-02
8.737710000000E+01 2.400010000000E-01
2.567890000000E+01 5.947970000000E-01
3.740040000000E+00 2.808020000000E-01
S  3 1.00
4.211750000000E+01 1.138890000000E-01
9.628370000000E+00 9.208110000000E-01
2.853320000000E+00 -3.274470000000E-03
S  1 1.00
9.056610000000E-01 1.000000000000E+00
S  1 1.00
2.556110000000E-01 1.000000000000E+00
S  1 1.00
8.450000000000E-02 1.000000000000E+00
P  3 1.00
4.211750000000E+01 3.651140000000E-02
9.628370000000E+00 2.371530000000E-01
2.853320000000E+00 8.197020000000E-01
P  1 1.00
9.056610000000E-01 1.000000000000E+00
P  1 1.00
2.556110000000E-01 1.000000000000E+00
P  1 1.00
8.450000000000E-02 1.000000000000E+00
D  1 1.00
2.584000000000E+00 1.000000000000E+00
D  1 1.00
6.460000000000E-01 1.000000000000E+00
F  1 1.00
1.400000000000E+00 1.000000000000E+00
****
$end

--------------------------------------------------------------
 ----------------------------------------------------
       Standard Nuclear Orientation (Angstroms)
    I     Atom         X            Y            Z
 ----------------------------------------------------
    1      C      -1.041616    -0.037458    -0.367126
    2      H      -1.144680    -0.101553    -1.454602
    3      C      -0.688256    -1.412747     0.162125
    4      H      -1.040677    -2.285158    -0.376675
    5      H      -0.757825    -1.515694     1.244329
    6      H       0.702495    -1.198054    -0.064419
    7      C       1.374207    -0.085852    -0.390954
    8      H       1.569530    -0.207661    -1.455247
    9      O       2.573201     0.128852     0.259471
   10      H       2.402816     0.323535     1.184335
   11      C       0.204073     0.815690    -0.064003
   12      H       0.214956     1.770169    -0.593907
   13      H       0.220037     1.034284     1.010971
   14      C      -2.319229     0.557596     0.214249
   15      H      -3.188291    -0.047919    -0.039506
   16      H      -2.488878     1.568682    -0.159545
   17      H      -2.250164     0.605179     1.302749
 ----------------------------------------------------
 Molecular Point Group                 C1    NOp =  1
 Largest Abelian Subgroup              C1    NOp =  1
 Nuclear Repulsion Energy =   249.9284456990 hartrees
 There are       25 alpha and       24 beta electrons
 Requested basis set is non-standard
 There are 138 shells and 314 basis functions

Total QAlloc Memory Limit   2000 MB
Mega-Array Size        61 MB
MEM_STATIC part        62 MB
 A cutoff of  1.0D-11 yielded   9038 shell pairs
 There are     46496 function pairs (     55821 Cartesian)
 Smallest overlap matrix eigenvalue = 1.05E-05

  Scale SEOQF with 1.000000e-01/1.000000e-01/1.000000e-01

 Standard Electronic Orientation quadrupole field applied
 Nucleus-field energy     =     0.0000000060 hartrees
 Guess MOs from core Hamiltonian diagonalization
 An unrestricted hybrid HF-DFT SCF calculation will be
 performed using Pulay DIIS extrapolation
 Exchange:     0.5679 Hartree-Fock + 1.0000 M08SO
 SCF converges when DIIS error is below 1.0E-08
 ---------------------------------------
  Cycle       Energy         DIIS Error
 ---------------------------------------
    1    -189.5015075936      9.30E-02
    2    -128.2466474198      7.01E-02
    3    -198.0577421119      5.79E-02
    4    -201.2097168376      5.36E-02
    5    -237.4680834340      3.92E-02
    6    -271.4882118459      6.47E-03
    7    -271.5592836721      5.71E-03
    8    -272.1248940348      1.45E-03
    9    -272.1589017492      4.47E-04
   10    -272.1641836901      1.21E-04
   11    -272.1650265140      7.91E-05
   12    -272.1652166074      3.34E-05
   13    -272.1653134346      1.23E-05
   14    -272.1653259083      4.43E-06
   15    -272.1653273005      1.95E-06
   16    -272.1653276462      6.27E-07
   17    -272.1653276975      2.71E-07
   18    -272.1653277062      1.00E-07
   19    -272.1653277075      2.05E-08
   20    -272.1653277077      6.85E-09 Convergence criterion met
 ---------------------------------------
 <S^2> = 0.7603
 SCF time:  CPU 1335.40 s  wall 1366.44 s
 SCF   energy in the final basis set = -272.1653277077
 Total energy in the final basis set = -272.1653277077
 Analysis of SCF Wavefunction
 
 --------------------------------------------------------------
                    Orbital Energies (a.u.)
 --------------------------------------------------------------
 
 Alpha MOs
 -- Occupied --
-19.583 -10.551 -10.503 -10.497 -10.494 -10.485  -1.161  -0.930
 -0.822  -0.773  -0.725  -0.652  -0.598  -0.565  -0.538  -0.515
 -0.481  -0.473  -0.466  -0.453  -0.406  -0.397  -0.388  -0.386
 -0.224
 -- Virtual --
 -0.026  -0.017  -0.008  -0.006   0.012   0.017   0.019   0.023
  0.024   0.050   0.055   0.063   0.075   0.077   0.082   0.089
  0.101   0.112   0.118   0.124   0.127   0.129   0.136   0.138
  0.143   0.148   0.152   0.159   0.162   0.179   0.193   0.199
  0.212   0.215   0.224   0.244   0.246   0.255   0.261   0.267
  0.286   0.295   0.303   0.310   0.322   0.327   0.341   0.348
  0.355   0.384   0.391   0.432   0.444   0.462   0.471   0.476
  0.492   0.522   0.535   0.539   0.546   0.561   0.563   0.569
  0.580   0.587   0.598   0.608   0.621   0.627   0.635   0.642
  0.651   0.655   0.677   0.687   0.693   0.702   0.720   0.735
  0.759   0.762   0.815   0.824   0.851   0.867   0.889   0.910
  0.929   0.943   0.955   0.964   0.991   1.028   1.051   1.066
  1.085   1.091   1.116   1.126   1.135   1.147   1.158   1.186
  1.192   1.204   1.235   1.245   1.252   1.265   1.280   1.293
  1.311   1.311   1.317   1.329   1.343   1.353   1.356   1.376
  1.385   1.410   1.422   1.426   1.448   1.455   1.464   1.490
  1.501   1.518   1.527   1.539   1.560   1.564   1.585   1.593
  1.617   1.656   1.662   1.682   1.701   1.761   1.770   1.821
  1.922   2.117   2.166   2.254   2.320   2.405   2.461   2.486
  2.520   2.562   2.612   2.640   2.666   2.676   2.693   2.731
  2.744   2.769   2.778   2.813   2.848   2.863   2.876   2.892
  2.918   2.924   2.940   2.969   2.980   3.010   3.049   3.069
  3.087   3.129   3.150   3.169   3.198   3.207   3.231   3.254
  3.265   3.297   3.316   3.320   3.331   3.367   3.372   3.396
  3.430   3.443   3.453   3.466   3.496   3.524   3.546   3.550
  3.569   3.579   3.614   3.649   3.657   3.684   3.709   3.719
  3.751   3.762   3.785   3.790   3.811   3.849   3.853   3.895
  3.903   3.930   3.952   3.972   3.974   3.988   3.996   4.015
  4.034   4.086   4.110   4.119   4.128   4.142   4.167   4.181
  4.194   4.204   4.224   4.249   4.253   4.283   4.314   4.355
  4.364   4.384   4.421   4.448   4.459   4.482   4.499   4.537
  4.554   4.606   4.636   4.657   4.688   4.716   4.755   4.801
  4.931   4.967   5.085   5.146   5.171   5.234   5.330   5.365
  5.410   5.429   5.468   5.518   5.525   5.556   5.587   5.665
  5.671   5.678   5.803   5.982   6.559   6.934   7.155   7.183
  7.189   7.492   7.582  24.042  24.141  24.193  24.254  24.289
 49.806
 
 Beta MOs
 -- Occupied --
-19.580 -10.540 -10.504 -10.497 -10.485 -10.482  -1.154  -0.927
 -0.818  -0.763  -0.719  -0.649  -0.587  -0.557  -0.533  -0.503
 -0.477  -0.465  -0.461  -0.450  -0.404  -0.397  -0.384  -0.357
 -- Virtual --
 -0.034  -0.025  -0.018  -0.011  -0.005   0.009   0.015   0.015
  0.019   0.021   0.049   0.052   0.062   0.073   0.074   0.080
  0.086   0.100   0.109   0.117   0.121   0.125   0.127   0.134
  0.137   0.143   0.146   0.150   0.157   0.161   0.175   0.194
  0.204   0.213   0.216   0.224   0.244   0.247   0.259   0.267
  0.271   0.290   0.296   0.304   0.315   0.325   0.329   0.345
  0.356   0.358   0.389   0.393   0.434   0.447   0.464   0.472
  0.480   0.497   0.524   0.538   0.542   0.555   0.563   0.566
  0.571   0.589   0.599   0.603   0.618   0.626   0.631   0.641
  0.655   0.655   0.662   0.686   0.693   0.696   0.704   0.723
  0.742   0.764   0.769   0.818   0.827   0.855   0.874   0.894
  0.911   0.932   0.947   0.960   0.967   0.995   1.033   1.053
  1.070   1.088   1.096   1.123   1.131   1.141   1.150   1.160
  1.190   1.196   1.209   1.245   1.250   1.257   1.270   1.289
  1.297   1.315   1.325   1.327   1.332   1.345   1.356   1.365
  1.381   1.397   1.422   1.429   1.432   1.454   1.462   1.473
  1.493   1.514   1.528   1.538   1.545   1.565   1.567   1.588
  1.604   1.627   1.665   1.669   1.694   1.710   1.768   1.780
  1.831   1.929   2.130   2.176   2.256   2.326   2.415   2.482
  2.496   2.533   2.576   2.627   2.652   2.678   2.699   2.719
  2.752   2.763   2.792   2.810   2.843   2.864   2.893   2.914
  2.923   2.934   2.950   2.965   2.986   3.014   3.032   3.061
  3.100   3.107   3.149   3.173   3.187   3.210   3.228   3.256
  3.272   3.293   3.316   3.340   3.346   3.350   3.388   3.403
  3.419   3.446   3.456   3.490   3.497   3.531   3.551   3.567
  3.589   3.604   3.620   3.640   3.672   3.684   3.709   3.731
  3.732   3.763   3.782   3.802   3.808   3.835   3.859   3.873
  3.911   3.921   3.947   3.965   3.983   3.988   3.993   4.006
  4.020   4.051   4.086   4.104   4.128   4.138   4.148   4.177
  4.187   4.205   4.214   4.238   4.264   4.272   4.299   4.331
  4.368   4.390   4.398   4.444   4.461   4.488   4.504   4.530
  4.556   4.566   4.618   4.654   4.676   4.706   4.727   4.808
  4.847   4.980   5.011   5.144   5.161   5.176   5.248   5.356
  5.378   5.430   5.483   5.505   5.538   5.572   5.597   5.627
  5.668   5.683   5.698   5.806   5.980   6.560   6.936   7.160
  7.184   7.192   7.487   7.573  24.048  24.150  24.196  24.263
 24.295  49.809
 --------------------------------------------------------------
 
          Ground-State Mulliken Net Atomic Charges

     Atom                 Charge (a.u.)    Spin (a.u.)
  --------------------------------------------------------
      1 C                     0.013101      -0.002455
      2 H                     0.283628       0.003453
      3 C                    -0.677362       0.664638
      4 H                     0.205683      -0.023367
      5 H                     0.230432      -0.027760
      6 H                     0.223602      -0.104554
      7 C                    -0.411739       0.487903
      8 H                     0.243970      -0.012344
      9 O                    -0.286409       0.043918
     10 H                     0.282555      -0.001745
     11 C                    -0.419398      -0.023194
     12 H                     0.214943       0.005602
     13 H                     0.228766       0.000866
     14 C                    -0.712590      -0.022516
     15 H                     0.197248       0.003185
     16 H                     0.184935       0.007481
     17 H                     0.198634       0.000889
  --------------------------------------------------------
  Sum of atomic charges =     0.000000
  Sum of spin   charges =     1.000000

 -----------------------------------------------------------------
                    Cartesian Multipole Moments
 -----------------------------------------------------------------
    Charge (ESU x 10^10)
                 0.0000
    Dipole Moment (Debye)
         X      -1.2877      Y       0.6038      Z       0.5938
       Tot       1.5412
    Quadrupole Moments (Debye-Ang)
        XX     -46.7873     XY       0.5564     YY     -41.2496
        XZ       2.5272     YZ       0.8072     ZZ     -36.6317
    Octapole Moments (Debye-Ang^2)
       XXX      -9.1892    XXY       1.2337    XYY       2.1713
       YYY       3.2222    XXZ       4.5272    XYZ       1.5542
       YYZ      -1.1453    XZZ      10.7594    YZZ       1.3344
       ZZZ       4.1719
    Hexadecapole Moments (Debye-Ang^3)
      XXXX    -776.6040   XXXY       4.4145   XXYY    -158.2410
      XYYY       2.4972   YYYY    -219.8103   XXXZ      22.9822
      XXYZ       5.9327   XYYZ       4.4275   YYYZ       0.7287
      XXZZ    -117.8452   XYZZ       3.0686   YYZZ     -53.5353
      XZZZ      10.7025   YZZZ       2.2668   ZZZZ     -94.5000
 -----------------------------------------------------------------
 Calculating analytic gradient of the SCF energy
 Gradient of Coulomb and Exchange Energy
            1           2           3           4           5           6
    1   2.7779495   0.8568459   0.7836087   1.2686780   0.3227992  -0.5865324
    2   0.6490574   0.1893800   3.1325336   3.9547930   1.1463396   2.3561670
    3  -0.6441335   4.8777466   0.4066593   1.9533121  -4.1902278  -0.1007322
            7           8           9          10          11          12
    1  -0.0576956  -1.1791079 -11.9639890  -0.3640305  -1.0916753  -0.2328958
    2  -0.6520373   0.6711117   0.2225949  -1.0806097  -0.9868584  -4.2385898
    3   1.1515638   4.5970795  -0.3250830  -4.7189141   1.5382339   2.2444745
           13          14          15          16          17
    1  -0.0643979   4.1474583   3.4769230   1.2590554   0.6470063
    2  -1.6608494  -1.4097977   1.7316025  -3.5366870  -0.4881504
    3  -4.1970624  -0.4767810   0.6697167   0.9835751  -3.7694275
 Gradient of SCF Energy
            1           2           3           4           5           6
    1  -0.0006551   0.0005655   0.0025601   0.0008819  -0.0001545  -0.0029219
    2   0.0001509   0.0004553  -0.0006636   0.0036949   0.0006784   0.0006333
    3  -0.0007436   0.0048358  -0.0000505   0.0021904  -0.0043256   0.0003073
            7           8           9          10          11          12
    1   0.0005114  -0.0004926  -0.0022545  -0.0004419  -0.0005496   0.0000729
    2   0.0010348   0.0007536   0.0003518  -0.0009600   0.0001175  -0.0039510
    3   0.0004633   0.0043078   0.0004002  -0.0036346   0.0010849   0.0020650
           13          14          15          16          17
    1  -0.0000103  -0.0014114   0.0039511   0.0007140  -0.0003649
    2  -0.0011373   0.0009811   0.0026499  -0.0044356  -0.0003540
    3  -0.0053001   0.0007858   0.0009989   0.0014700  -0.0048551
 Max gradient component =       5.300E-03
 RMS gradient           =       2.188E-03
 Gradient time:  CPU 96.93 s  wall 98.90 s
 Geometry Optimization Parameters
   NAtoms,    NIC,     NZ,  NCons,   NDum,   NFix, NCnnct, MaxDiis
       17     128      17       0       0       0       0       0


** GEOMETRY OPTIMIZATION IN DELOCALIZED INTERNAL COORDINATES **
   Searching for a Transition State

   Optimization Cycle:   1

                       Coordinates (Angstroms)
     ATOM              X           Y           Z
      1  C        -1.041616   -0.037458   -0.367126
      2  H        -1.144680   -0.101553   -1.454602
      3  C        -0.688256   -1.412747    0.162125
      4  H        -1.040677   -2.285158   -0.376675
      5  H        -0.757825   -1.515694    1.244329
      6  H         0.702495   -1.198054   -0.064419
      7  C         1.374207   -0.085852   -0.390954
      8  H         1.569530   -0.207661   -1.455247
      9  O         2.573201    0.128852    0.259471
     10  H         2.402816    0.323535    1.184335
     11  C         0.204073    0.815690   -0.064003
     12  H         0.214956    1.770169   -0.593907
     13  H         0.220037    1.034284    1.010971
     14  C        -2.319229    0.557596    0.214249
     15  H        -3.188291   -0.047919   -0.039506
     16  H        -2.488878    1.568682   -0.159545
     17  H        -2.250164    0.605179    1.302749
   Point Group: c1    Number of degrees of freedom:    45


   Energy is   -272.165327708


 Attempting to Generate Delocalized Internal Coordinates
 GETINT wrote B to file, NVib is           45
 calling HSSCONV
 HCONV 3*NATOMS:           51
 wrote HINT to file
  writing hessian 

 45 Hessian modes will be used to form the next step
  Hessian Eigenvalues:
     0.004033    0.005926    0.007119    0.018179    0.027308    0.030805
     0.041045    0.043638    0.046452    0.048502    0.053737    0.056344
     0.057642    0.059163    0.061346    0.071651    0.086224    0.093045
     0.100792    0.108003    0.120744    0.137180    0.143576    0.160000
     0.160000    0.160000    0.160000    0.160345    0.167234    0.185561
     0.272031    0.283596    0.299285    0.300779    0.340060    0.343286
     0.346096    0.346138    0.346701    0.348922    0.349078    0.349398
     0.354852    0.489480    0.553945
**WARNING** Hessian does not have the Desired Local Structure

 Transition State Search - Taking P-RFO Step
 Searching for Lamda that Maximizes Along the Lowest mode
 Value Taken    Lamda =   0.00403444
 Searching for Lamda that Minimizes Along All other modes
 Value Taken    Lamda =  -0.00096120
 Calculated Step too Large.  Step scaled by  0.006500
 Step Taken.  Stepsize is  0.300000

                             Maximum     Tolerance    Cnvgd?
         Gradient           0.009579      0.000300      NO
         Displacement       0.149880      0.001200      NO
         Energy change     *********      0.000001      NO


 New Cartesian Coordinates Obtained by Inverse Iteration

 Displacement from previous Coordinates is:  0.235557
 ----------------------------------------------------
       Standard Nuclear Orientation (Angstroms)
    I     Atom         X            Y            Z
 ----------------------------------------------------
    1      C      -1.040151    -0.035732    -0.363923
    2      H      -1.139136    -0.092749    -1.452221
    3      C      -0.693378    -1.417135     0.155828
    4      H      -1.017263    -2.282473    -0.411610
    5      H      -0.806811    -1.540345     1.232233
    6      H       0.704878    -1.189981    -0.004769
    7      C       1.371652    -0.092243    -0.382798
    8      H       1.542982    -0.245559    -1.447195
    9      O       2.584220     0.140643     0.235470
   10      H       2.433557     0.363071     1.157519
   11      C       0.206438     0.814832    -0.055821
   12      H       0.220781     1.767990    -0.588108
   13      H       0.222258     1.035216     1.018845
   14      C      -2.319346     0.558482     0.214930
   15      H      -3.188396    -0.044017    -0.046145
   16      H      -2.485430     1.571987    -0.154020
   17      H      -2.255156     0.599907     1.304030
 ----------------------------------------------------
 Molecular Point Group                 C1    NOp =  1
 Largest Abelian Subgroup              C1    NOp =  1
 Nuclear Repulsion Energy =   249.8220571534 hartrees
 There are       25 alpha and       24 beta electrons
 Applying Cartesian multipole field
    Component          Value
    ---------          -----
     (2,0,0)        1.00000E-11
     (0,2,0)        2.00000E-11
     (0,0,2)       -3.00000E-11
 Nucleus-field energy     =     0.0000000061 hartrees
 Requested basis set is non-standard
 There are 138 shells and 314 basis functions
 A cutoff of  1.0D-11 yielded   9035 shell pairs
 There are     46475 function pairs (     55800 Cartesian)
 Smallest overlap matrix eigenvalue = 1.06E-05
 Guess MOs from SCF MO coefficient file
Reading MOs from coefficient file
Reading MOs from coefficient file
 An unrestricted hybrid HF-DFT SCF calculation will be
 performed using Pulay DIIS extrapolation
 Exchange:     0.5679 Hartree-Fock + 1.0000 M08SO
 SCF converges when DIIS error is below 1.0E-08
Geometry optimization detected.  Setting ReadMinima to 0
Setting SaveMinima to 0
 ---------------------------------------
  Cycle       Energy         DIIS Error
 ---------------------------------------
    1    -272.1650018145      3.42E-04
    2    -272.1650745809      5.10E-05
    3    -272.1651391061      3.30E-05
    4    -272.1651556223      1.37E-05
    5    -272.1651596434      3.11E-06
    6    -272.1651599562      1.45E-06
    7    -272.1651600121      5.48E-07
    8    -272.1651600280      1.35E-07
    9    -272.1651600291      3.34E-08
   10    -272.1651600292      1.13E-08
   11    -272.1651600288      4.85E-09 Convergence criterion met
 ---------------------------------------
 <S^2> = 0.7602
 SCF time:  CPU 721.29 s  wall 737.33 s
 SCF   energy in the final basis set = -272.1651600288
 Total energy in the final basis set = -272.1651600288
 Analysis of SCF Wavefunction
 
 --------------------------------------------------------------
                    Orbital Energies (a.u.)
 --------------------------------------------------------------
 
 Alpha MOs
 -- Occupied --
-19.582 -10.551 -10.503 -10.497 -10.494 -10.485  -1.161  -0.930
 -0.822  -0.772  -0.725  -0.652  -0.598  -0.564  -0.538  -0.515
 -0.481  -0.473  -0.465  -0.453  -0.406  -0.397  -0.389  -0.386
 -0.224
 -- Virtual --
 -0.026  -0.017  -0.008  -0.006   0.012   0.017   0.019   0.023
  0.024   0.050   0.055   0.064   0.075   0.077   0.082   0.089
  0.101   0.112   0.119   0.123   0.127   0.129   0.136   0.138
  0.144   0.148   0.151   0.159   0.162   0.178   0.193   0.200
  0.212   0.215   0.223   0.244   0.247   0.254   0.260   0.267
  0.284   0.296   0.303   0.312   0.323   0.328   0.340   0.349
  0.356   0.384   0.390   0.432   0.442   0.463   0.471   0.477
  0.491   0.521   0.536   0.538   0.547   0.561   0.564   0.568
  0.580   0.588   0.599   0.605   0.620   0.625   0.634   0.640
  0.651   0.655   0.678   0.687   0.693   0.703   0.721   0.734
  0.762   0.764   0.812   0.826   0.851   0.865   0.889   0.910
  0.931   0.942   0.955   0.963   0.995   1.028   1.051   1.063
  1.084   1.091   1.119   1.127   1.134   1.146   1.158   1.185
  1.193   1.205   1.233   1.245   1.253   1.265   1.278   1.293
  1.309   1.311   1.314   1.329   1.343   1.352   1.355   1.375
  1.385   1.411   1.422   1.429   1.446   1.453   1.464   1.489
  1.500   1.519   1.525   1.540   1.564   1.566   1.585   1.593
  1.615   1.656   1.663   1.682   1.699   1.758   1.768   1.822
  1.920   2.116   2.169   2.254   2.323   2.405   2.459   2.484
  2.517   2.565   2.609   2.643   2.664   2.674   2.693   2.729
  2.750   2.768   2.776   2.815   2.846   2.862   2.879   2.893
  2.917   2.923   2.939   2.969   2.978   3.009   3.047   3.071
  3.095   3.125   3.154   3.169   3.196   3.210   3.231   3.256
  3.264   3.294   3.313   3.319   3.329   3.364   3.373   3.401
  3.429   3.440   3.455   3.469   3.493   3.521   3.548   3.551
  3.572   3.582   3.615   3.646   3.657   3.685   3.702   3.719
  3.753   3.761   3.784   3.789   3.813   3.849   3.860   3.894
  3.899   3.931   3.951   3.969   3.980   3.987   3.994   4.012
  4.034   4.083   4.106   4.120   4.128   4.143   4.166   4.182
  4.192   4.204   4.225   4.248   4.253   4.277   4.317   4.354
  4.369   4.385   4.426   4.447   4.459   4.478   4.498   4.540
  4.554   4.604   4.636   4.659   4.684   4.715   4.757   4.802
  4.930   4.968   5.082   5.146   5.171   5.235   5.326   5.366
  5.412   5.429   5.470   5.519   5.526   5.554   5.590   5.665
  5.672   5.677   5.803   5.982   6.559   6.934   7.155   7.184
  7.190   7.493   7.582  24.044  24.141  24.192  24.256  24.288
 49.806
 
 Beta MOs
 -- Occupied --
-19.580 -10.540 -10.504 -10.497 -10.485 -10.482  -1.154  -0.927
 -0.818  -0.763  -0.718  -0.649  -0.587  -0.557  -0.532  -0.503
 -0.477  -0.465  -0.460  -0.450  -0.404  -0.396  -0.385  -0.357
 -- Virtual --
 -0.034  -0.025  -0.018  -0.011  -0.006   0.009   0.015   0.016
  0.020   0.021   0.049   0.052   0.062   0.072   0.074   0.080
  0.086   0.100   0.110   0.117   0.121   0.125   0.127   0.134
  0.137   0.143   0.146   0.149   0.157   0.161   0.175   0.195
  0.204   0.213   0.216   0.223   0.244   0.248   0.259   0.265
  0.271   0.289   0.297   0.305   0.316   0.325   0.330   0.345
  0.357   0.359   0.388   0.393   0.433   0.445   0.464   0.472
  0.480   0.495   0.523   0.539   0.541   0.556   0.564   0.566
  0.571   0.589   0.600   0.604   0.614   0.625   0.630   0.639
  0.653   0.656   0.661   0.687   0.693   0.695   0.704   0.725
  0.742   0.766   0.770   0.815   0.828   0.855   0.870   0.894
  0.912   0.933   0.945   0.961   0.966   0.998   1.033   1.054
  1.067   1.087   1.097   1.124   1.133   1.140   1.149   1.160
  1.189   1.196   1.210   1.243   1.249   1.259   1.269   1.288
  1.297   1.314   1.322   1.325   1.333   1.346   1.356   1.365
  1.380   1.398   1.422   1.430   1.435   1.452   1.459   1.474
  1.493   1.512   1.529   1.536   1.546   1.568   1.569   1.588
  1.605   1.625   1.665   1.671   1.694   1.708   1.764   1.778
  1.833   1.928   2.128   2.179   2.256   2.329   2.415   2.481
  2.495   2.531   2.578   2.624   2.654   2.678   2.699   2.717
  2.751   2.767   2.792   2.809   2.844   2.861   2.892   2.915
  2.926   2.934   2.949   2.962   2.986   3.014   3.029   3.059
  3.105   3.108   3.148   3.175   3.186   3.209   3.232   3.255
  3.273   3.292   3.314   3.340   3.344   3.347   3.387   3.403
  3.422   3.444   3.456   3.490   3.499   3.531   3.548   3.568
  3.589   3.610   3.620   3.640   3.670   3.683   3.709   3.724
  3.732   3.766   3.783   3.799   3.808   3.837   3.862   3.875
  3.911   3.919   3.949   3.963   3.984   3.991   3.992   3.999
  4.019   4.049   4.084   4.104   4.124   4.138   4.148   4.177
  4.188   4.204   4.212   4.238   4.266   4.268   4.292   4.334
  4.369   4.393   4.400   4.448   4.461   4.489   4.503   4.526
  4.556   4.566   4.616   4.654   4.676   4.701   4.728   4.804
  4.849   4.981   5.009   5.142   5.160   5.176   5.248   5.354
  5.378   5.431   5.482   5.508   5.539   5.570   5.598   5.629
  5.669   5.683   5.697   5.805   5.979   6.561   6.935   7.161
  7.185   7.192   7.488   7.573  24.050  24.149  24.195  24.264
 24.294  49.810
 --------------------------------------------------------------
 
          Ground-State Mulliken Net Atomic Charges

     Atom                 Charge (a.u.)    Spin (a.u.)
  --------------------------------------------------------
      1 C                     0.006894      -0.009025
      2 H                     0.285635       0.003703
      3 C                    -0.667395       0.667265
      4 H                     0.199947      -0.024467
      5 H                     0.228324      -0.027141
      6 H                     0.226009      -0.103611
      7 C                    -0.414124       0.486184
      8 H                     0.243987      -0.012632
      9 O                    -0.286967       0.044483
     10 H                     0.282662      -0.001975
     11 C                    -0.409189      -0.020083
     12 H                     0.215489       0.005391
     13 H                     0.227006       0.001509
     14 C                    -0.719241      -0.020487
     15 H                     0.197380       0.003014
     16 H                     0.185094       0.007098
     17 H                     0.198489       0.000774
  --------------------------------------------------------
  Sum of atomic charges =     0.000000
  Sum of spin   charges =     1.000000

 -----------------------------------------------------------------
                    Cartesian Multipole Moments
 -----------------------------------------------------------------
    Charge (ESU x 10^10)
                 0.0000
    Dipole Moment (Debye)
         X      -1.2674      Y       0.6266      Z       0.6117
       Tot       1.5405
    Quadrupole Moments (Debye-Ang)
        XX     -46.7120     XY       0.6173     YY     -41.2071
        XZ       2.6361     YZ       0.9269     ZZ     -36.6985
    Octapole Moments (Debye-Ang^2)
       XXX      -8.9748    XXY       1.5267    XYY       2.3366
       YYY       3.2183    XXZ       5.1940    XYZ       1.8672
       YYZ      -1.0609    XZZ      10.5440    YZZ       1.2981
       ZZZ       4.0909
    Hexadecapole Moments (Debye-Ang^3)
      XXXX    -778.0845   XXXY       4.1948   XXYY    -158.6105
      XYYY       1.5851   YYYY    -220.8355   XXXZ      25.5764
      XXYZ       6.4074   XYYZ       4.7672   YYYZ       0.4944
      XXZZ    -118.0753   XYZZ       3.1136   YYZZ     -53.2320
      XZZZ      10.9415   YZZZ       2.0243   ZZZZ     -93.8359
 -----------------------------------------------------------------
 Calculating analytic gradient of the SCF energy
 Gradient of Coulomb and Exchange Energy
            1           2           3           4           5           6
    1   2.8493911   0.8156191   0.6497672   1.1972048   0.4631128  -0.5501429
    2   0.6832632   0.1668186   3.0753529   3.9179089   1.2189495   2.3209638
    3  -0.7731117   4.8822498   0.4464641   2.0524691  -4.1266075  -0.3789749
            7           8           9          10          11          12
    1  -0.1145606  -1.0966519 -11.9284281  -0.4654652  -1.0830389  -0.2419323
    2  -0.5959765   0.7901482   0.2107485  -1.2160635  -0.9096711  -4.2390961
    3   1.2039343   4.6215922  -0.1645434  -4.6734896   1.4478680   2.2200210
           13          14          15          16          17
    1  -0.0674312   4.1872150   3.4743713   1.2513318   0.6596381
    2  -1.6841344  -1.4531918   1.7207243  -3.5441409  -0.4626035
    3  -4.1837932  -0.4679996   0.6928249   0.9699000  -3.7688036
 Gradient of SCF Energy
            1           2           3           4           5           6
    1  -0.0008301   0.0006299   0.0029097   0.0004127   0.0001966  -0.0027856
    2   0.0004456   0.0003080  -0.0012967   0.0036531   0.0008193   0.0014655
    3   0.0001000   0.0048191  -0.0020739   0.0023077  -0.0043027   0.0032189
            7           8           9          10          11          12
    1   0.0004274  -0.0002877  -0.0024545  -0.0005335  -0.0005047   0.0001192
    2   0.0011027   0.0010103  -0.0000070  -0.0010984  -0.0003049  -0.0040596
    3  -0.0020733   0.0041884   0.0005912  -0.0035896   0.0017785   0.0020489
           13          14          15          16          17
    1  -0.0000239  -0.0015294   0.0039076   0.0006601  -0.0003137
    2  -0.0009675   0.0010079   0.0026404  -0.0043882  -0.0003306
    3  -0.0052465   0.0006055   0.0010326   0.0014356  -0.0048404
 Max gradient component =       5.246E-03
 RMS gradient           =       2.291E-03
 Gradient time:  CPU 98.35 s  wall 99.28 s
 Geometry Optimization Parameters
   NAtoms,    NIC,     NZ,  NCons,   NDum,   NFix, NCnnct, MaxDiis
       17     128      17       0       0       0       0       0

 Cartesian Hessian Update
 Hessian Updated using Powell/Murtagh-Sargent Update
  Mixing factors:     0.000397 Powell
                      0.999603 Murtagh-Sargent


** GEOMETRY OPTIMIZATION IN DELOCALIZED INTERNAL COORDINATES **
   Searching for a Transition State

   Optimization Cycle:   2

                       Coordinates (Angstroms)
     ATOM              X           Y           Z
      1  C        -1.040151   -0.035732   -0.363923
      2  H        -1.139136   -0.092749   -1.452221
      3  C        -0.693378   -1.417135    0.155828
      4  H        -1.017263   -2.282473   -0.411610
      5  H        -0.806811   -1.540345    1.232233
      6  H         0.704878   -1.189981   -0.004769
      7  C         1.371652   -0.092243   -0.382798
      8  H         1.542982   -0.245559   -1.447195
      9  O         2.584220    0.140643    0.235470
     10  H         2.433557    0.363071    1.157519
     11  C         0.206438    0.814832   -0.055821
     12  H         0.220781    1.767990   -0.588108
     13  H         0.222258    1.035216    1.018845
     14  C        -2.319346    0.558482    0.214930
     15  H        -3.188396   -0.044017   -0.046145
     16  H        -2.485430    1.571987   -0.154020
     17  H        -2.255156    0.599907    1.304030
   Point Group: c1    Number of degrees of freedom:    45


   Energy is   -272.165160029

 GETINT wrote B to file, NVib is           45
 Hessian Updated using Powell/Murtagh-Sargent Update
  Mixing factors:     0.977694 Powell
                      0.022306 Murtagh-Sargent

 43 Hessian modes will be used to form the next step
  Hessian Eigenvalues:
     0.002674    0.005926    0.007140    0.018179    0.027400    0.030807
     0.041040    0.043635    0.046436    0.048500    0.053730    0.056344
     0.057642    0.059124    0.061345    0.071651    0.086223    0.093038
     0.100729    0.107994    0.120724    0.137173    0.143573    0.159998
     0.160000    0.160339    0.167233    0.185554    0.272031    0.283596
     0.299283    0.300779    0.340059    0.343286    0.346092    0.346138
     0.346701    0.348921    0.349078    0.349397    0.354850    0.489465
     0.553945
**WARNING** Hessian does not have the Desired Local Structure

 Transition State Search - Taking P-RFO Step
 Searching for Lamda that Maximizes Along the Lowest mode
 Value Taken    Lamda =   0.00292797
 Searching for Lamda that Minimizes Along All other modes
 Value Taken    Lamda =  -0.00101874
 Calculated Step too Large.  Step scaled by  0.088319
 Step Taken.  Stepsize is  0.300000

                             Maximum     Tolerance    Cnvgd?
         Gradient           0.009553      0.000300      NO
         Displacement       0.120901      0.001200      NO
         Energy change      0.000168      0.000001      NO


 New Cartesian Coordinates Obtained by Inverse Iteration

 Displacement from previous Coordinates is:  0.253677
 ----------------------------------------------------
       Standard Nuclear Orientation (Angstroms)
    I     Atom         X            Y            Z
 ----------------------------------------------------
    1      C      -1.039726    -0.034398    -0.364983
    2      H      -1.140447    -0.083785    -1.454176
    3      C      -0.699729    -1.421945     0.148014
    4      H      -0.987273    -2.279340    -0.451033
    5      H      -0.861238    -1.569722     1.215809
    6      H       0.704017    -1.181899     0.052884
    7      C       1.369559    -0.101116    -0.368868
    8      H       1.518588    -0.289412    -1.431477
    9      O       2.595218     0.153714     0.215414
   10      H       2.465030     0.409301     1.132311
   11      C       0.208361     0.814715    -0.052665
   12      H       0.229500     1.766885    -0.588105
   13      H       0.218977     1.037761     1.022179
   14      C      -2.317295     0.559672     0.218569
   15      H      -3.188544    -0.039270    -0.046013
   16      H      -2.480721     1.576467    -0.144167
   17      H      -2.252578     0.594264     1.308551
 ----------------------------------------------------
 Molecular Point Group                 C1    NOp =  1
 Largest Abelian Subgroup              C1    NOp =  1
 Nuclear Repulsion Energy =   249.6363122352 hartrees
 There are       25 alpha and       24 beta electrons
 Applying Cartesian multipole field
    Component          Value
    ---------          -----
     (2,0,0)        1.00000E-11
     (0,2,0)        2.00000E-11
     (0,0,2)       -3.00000E-11
 Nucleus-field energy     =     0.0000000061 hartrees
 Requested basis set is non-standard
 There are 138 shells and 314 basis functions
 A cutoff of  1.0D-11 yielded   9031 shell pairs
 There are     46437 function pairs (     55750 Cartesian)
 Smallest overlap matrix eigenvalue = 1.06E-05
 Guess MOs from SCF MO coefficient file
Reading MOs from coefficient file
Reading MOs from coefficient file
 An unrestricted hybrid HF-DFT SCF calculation will be
 performed using Pulay DIIS extrapolation
 Exchange:     0.5679 Hartree-Fock + 1.0000 M08SO
 SCF converges when DIIS error is below 1.0E-08
Geometry optimization detected.  Setting ReadMinima to 0
Setting SaveMinima to 0
 ---------------------------------------
  Cycle       Energy         DIIS Error
 ---------------------------------------
    1    -272.1635153856      3.80E-04
    2    -272.1647745044      5.45E-05
    3    -272.1648549992      3.40E-05
    4    -272.1648726368      1.56E-05
    5    -272.1648777668      3.71E-06
    6    -272.1648781698      1.62E-06
    7    -272.1648782497      6.01E-07
    8    -272.1648782699      1.73E-07
    9    -272.1648782719      5.58E-08
   10    -272.1648782720      2.22E-08
   11    -272.1648782719      8.84E-09 Convergence criterion met
 ---------------------------------------
 <S^2> = 0.7602
 SCF time:  CPU 718.63 s  wall 735.32 s
 SCF   energy in the final basis set = -272.1648782719
 Total energy in the final basis set = -272.1648782719
 Analysis of SCF Wavefunction
 
 --------------------------------------------------------------
                    Orbital Energies (a.u.)
 --------------------------------------------------------------
 
 Alpha MOs
 -- Occupied --
-19.582 -10.551 -10.504 -10.497 -10.494 -10.485  -1.161  -0.930
 -0.822  -0.772  -0.725  -0.652  -0.597  -0.564  -0.538  -0.515
 -0.481  -0.473  -0.465  -0.453  -0.406  -0.396  -0.389  -0.386
 -0.224
 -- Virtual --
 -0.026  -0.017  -0.008  -0.006   0.012   0.017   0.019   0.023
  0.024   0.049   0.055   0.064   0.074   0.077   0.082   0.090
  0.101   0.112   0.119   0.123   0.128   0.129   0.136   0.138
  0.144   0.148   0.150   0.159   0.163   0.177   0.193   0.200
  0.211   0.215   0.222   0.244   0.247   0.254   0.259   0.267
  0.283   0.298   0.303   0.313   0.323   0.329   0.340   0.350
  0.356   0.383   0.389   0.432   0.440   0.462   0.470   0.478
  0.489   0.519   0.536   0.537   0.547   0.562   0.565   0.567
  0.581   0.589   0.599   0.602   0.619   0.624   0.632   0.638
  0.650   0.654   0.680   0.688   0.692   0.703   0.724   0.733
  0.764   0.765   0.809   0.828   0.849   0.861   0.889   0.911
  0.932   0.940   0.956   0.964   0.998   1.027   1.050   1.059
  1.084   1.092   1.121   1.129   1.135   1.145   1.158   1.184
  1.193   1.205   1.231   1.242   1.254   1.266   1.275   1.295
  1.306   1.310   1.314   1.329   1.341   1.352   1.354   1.372
  1.386   1.413   1.422   1.431   1.445   1.450   1.463   1.486
  1.498   1.518   1.525   1.541   1.566   1.568   1.583   1.594
  1.612   1.656   1.663   1.682   1.697   1.752   1.766   1.822
  1.919   2.115   2.169   2.253   2.325   2.406   2.458   2.482
  2.515   2.564   2.606   2.646   2.660   2.673   2.693   2.728
  2.757   2.766   2.774   2.815   2.843   2.861   2.879   2.893
  2.910   2.927   2.939   2.968   2.975   3.006   3.046   3.072
  3.101   3.123   3.157   3.169   3.194   3.209   3.230   3.256
  3.264   3.290   3.310   3.319   3.326   3.358   3.373   3.404
  3.425   3.439   3.456   3.473   3.490   3.517   3.550   3.550
  3.577   3.587   3.616   3.643   3.656   3.684   3.697   3.718
  3.752   3.760   3.781   3.788   3.816   3.847   3.867   3.890
  3.894   3.932   3.947   3.964   3.983   3.989   3.991   4.008
  4.036   4.077   4.100   4.119   4.128   4.144   4.166   4.182
  4.188   4.204   4.224   4.244   4.254   4.269   4.321   4.352
  4.369   4.384   4.431   4.444   4.457   4.473   4.498   4.542
  4.554   4.599   4.632   4.658   4.677   4.711   4.756   4.805
  4.929   4.967   5.078   5.146   5.170   5.235   5.320   5.365
  5.412   5.428   5.471   5.516   5.525   5.550   5.590   5.663
  5.670   5.673   5.800   5.980   6.558   6.933   7.154   7.183
  7.189   7.494   7.583  24.044  24.137  24.188  24.254  24.283
 49.806
 
 Beta MOs
 -- Occupied --
-19.580 -10.540 -10.504 -10.497 -10.485 -10.482  -1.154  -0.927
 -0.818  -0.762  -0.718  -0.648  -0.586  -0.556  -0.532  -0.502
 -0.477  -0.466  -0.459  -0.449  -0.403  -0.396  -0.385  -0.357
 -- Virtual --
 -0.033  -0.026  -0.018  -0.011  -0.006   0.009   0.015   0.016
  0.020   0.021   0.048   0.052   0.063   0.072   0.075   0.080
  0.086   0.100   0.110   0.117   0.120   0.126   0.127   0.134
  0.137   0.143   0.146   0.148   0.157   0.161   0.173   0.195
  0.205   0.213   0.216   0.222   0.244   0.248   0.259   0.263
  0.271   0.288   0.299   0.306   0.317   0.325   0.330   0.345
  0.356   0.362   0.388   0.391   0.433   0.443   0.464   0.471
  0.481   0.493   0.521   0.539   0.540   0.556   0.564   0.566
  0.570   0.589   0.601   0.605   0.609   0.623   0.629   0.637
  0.651   0.656   0.661   0.688   0.693   0.695   0.704   0.727
  0.741   0.768   0.770   0.813   0.830   0.855   0.865   0.894
  0.913   0.936   0.943   0.961   0.967   1.001   1.033   1.053
  1.063   1.086   1.098   1.126   1.137   1.139   1.148   1.160
  1.188   1.196   1.211   1.242   1.247   1.260   1.271   1.285
  1.298   1.312   1.319   1.324   1.334   1.344   1.357   1.363
  1.379   1.399   1.422   1.430   1.438   1.451   1.455   1.473
  1.491   1.510   1.530   1.532   1.547   1.570   1.571   1.587
  1.606   1.622   1.664   1.671   1.694   1.706   1.758   1.776
  1.833   1.926   2.127   2.179   2.255   2.331   2.415   2.481
  2.494   2.529   2.577   2.620   2.656   2.676   2.697   2.717
  2.749   2.773   2.791   2.806   2.845   2.857   2.890   2.917
  2.927   2.932   2.944   2.963   2.986   3.014   3.024   3.057
  3.105   3.115   3.149   3.176   3.184   3.205   3.236   3.253
  3.274   3.292   3.311   3.338   3.340   3.346   3.383   3.403
  3.424   3.440   3.455   3.487   3.501   3.532   3.546   3.567
  3.588   3.616   3.621   3.642   3.669   3.682   3.707   3.720
  3.732   3.766   3.784   3.795   3.805   3.840   3.864   3.879
  3.908   3.916   3.950   3.959   3.979   3.988   3.995   3.999
  4.018   4.046   4.079   4.103   4.119   4.137   4.148   4.175
  4.189   4.200   4.211   4.237   4.265   4.269   4.283   4.336
  4.370   4.392   4.401   4.448   4.461   4.490   4.502   4.521
  4.557   4.567   4.610   4.651   4.675   4.694   4.726   4.799
  4.853   4.981   5.009   5.139   5.158   5.175   5.247   5.350
  5.377   5.431   5.478   5.509   5.538   5.565   5.597   5.628
  5.667   5.680   5.694   5.802   5.977   6.560   6.934   7.160
  7.184   7.192   7.489   7.574  24.050  24.146  24.191  24.263
 24.289  49.809
 --------------------------------------------------------------
 
          Ground-State Mulliken Net Atomic Charges

     Atom                 Charge (a.u.)    Spin (a.u.)
  --------------------------------------------------------
      1 C                     0.010842      -0.016719
      2 H                     0.286762       0.004032
      3 C                    -0.662147       0.672587
      4 H                     0.194829      -0.025862
      5 H                     0.226062      -0.026686
      6 H                     0.229734      -0.102606
      7 C                    -0.419094       0.481748
      8 H                     0.245326      -0.012695
      9 O                    -0.288847       0.044691
     10 H                     0.282979      -0.002167
     11 C                    -0.403356      -0.016165
     12 H                     0.215432       0.005070
     13 H                     0.225853       0.002279
     14 C                    -0.725615      -0.017700
     15 H                     0.197595       0.002743
     16 H                     0.185273       0.006751
     17 H                     0.198372       0.000697
  --------------------------------------------------------
  Sum of atomic charges =     0.000000
  Sum of spin   charges =     1.000000

 -----------------------------------------------------------------
                    Cartesian Multipole Moments
 -----------------------------------------------------------------
    Charge (ESU x 10^10)
                 0.0000
    Dipole Moment (Debye)
         X      -1.2504      Y       0.6490      Z       0.6283
       Tot       1.5426
    Quadrupole Moments (Debye-Ang)
        XX     -46.6470     XY       0.7032     YY     -41.1369
        XZ       2.7315     YZ       1.0534     ZZ     -36.7856
    Octapole Moments (Debye-Ang^2)
       XXX      -8.6762    XXY       1.9095    XYY       2.5730
       YYY       3.2284    XXZ       5.8401    XYZ       2.2508
       YYZ      -0.9720    XZZ      10.2690    YZZ       1.2532
       ZZZ       4.0140
    Hexadecapole Moments (Debye-Ang^3)
      XXXX    -779.2864   XXXY       4.1509   XXYY    -158.9309
      XYYY       0.5871   YYYY    -222.1296   XXXZ      27.8333
      XXYZ       6.9233   XYYZ       5.0030   YYYZ       0.1658
      XXZZ    -118.4106   XYZZ       3.1909   YYZZ     -52.9386
      XZZZ      11.0817   YZZZ       1.7124   ZZZZ     -93.3535
 -----------------------------------------------------------------
 Calculating analytic gradient of the SCF energy
 Gradient of Coulomb and Exchange Energy
            1           2           3           4           5           6
    1   2.8987462   0.8029030   0.5267363   1.0919031   0.6186762  -0.4849168
    2   0.7946934   0.1355010   3.0117588   3.8754922   1.3055817   2.2827654
    3  -0.8285080   4.8858617   0.4016945   2.1662172  -4.0566558  -0.5998224
            7           8           9          10          11          12
    1  -0.1710097  -1.0139550 -11.8945254  -0.5695629  -1.0981283  -0.2643482
    2  -0.4897744   0.9295515   0.1774916  -1.3756713  -0.8886705  -4.2497264
    3   1.1311999   4.6169990  -0.0126034  -4.6107515   1.4637391   2.1931699
           13          14          15          16          17
    1  -0.0517577   4.2379723   3.4764919   1.2417817   0.6529935
    2  -1.7018775  -1.5263118   1.7086465  -3.5536009  -0.4358491
    3  -4.1621789  -0.4680327   0.7010528   0.9487042  -3.7700857
 Gradient of SCF Energy
            1           2           3           4           5           6
    1  -0.0009304   0.0004670   0.0036631  -0.0000830   0.0003861  -0.0034436
    2   0.0005270   0.0002963  -0.0017227   0.0033750   0.0006338   0.0019575
    3   0.0003146   0.0042800  -0.0031076   0.0021478  -0.0037841   0.0050457
            7           8           9          10          11          12
    1   0.0003639  -0.0002781  -0.0019593  -0.0005064  -0.0004628   0.0001448
    2   0.0008634   0.0012024  -0.0000434  -0.0011478  -0.0004012  -0.0035328
    3  -0.0030801   0.0038480   0.0004390  -0.0031855   0.0016193   0.0019825
           13          14          15          16          17
    1   0.0000047  -0.0012599   0.0035960   0.0006111  -0.0003134
    2  -0.0010050   0.0009172   0.0023830  -0.0040352  -0.0002674
    3  -0.0048723   0.0005261   0.0009554   0.0012722  -0.0044010
 Max gradient component =       5.046E-03
 RMS gradient           =       2.278E-03
 Gradient time:  CPU 96.83 s  wall 100.40 s
 Geometry Optimization Parameters
   NAtoms,    NIC,     NZ,  NCons,   NDum,   NFix, NCnnct, MaxDiis
       17     128      17       0       0       0       0       0

 Cartesian Hessian Update
 Hessian Updated using Powell/Murtagh-Sargent Update
  Mixing factors:     0.963498 Powell
                      0.036502 Murtagh-Sargent


** GEOMETRY OPTIMIZATION IN DELOCALIZED INTERNAL COORDINATES **
   Searching for a Transition State

   Optimization Cycle:   3

                       Coordinates (Angstroms)
     ATOM              X           Y           Z
      1  C        -1.039726   -0.034398   -0.364983
      2  H        -1.140447   -0.083785   -1.454176
      3  C        -0.699729   -1.421945    0.148014
      4  H        -0.987273   -2.279340   -0.451033
      5  H        -0.861238   -1.569722    1.215809
      6  H         0.704017   -1.181899    0.052884
      7  C         1.369559   -0.101116   -0.368868
      8  H         1.518588   -0.289412   -1.431477
      9  O         2.595218    0.153714    0.215414
     10  H         2.465030    0.409301    1.132311
     11  C         0.208361    0.814715   -0.052665
     12  H         0.229500    1.766885   -0.588105
     13  H         0.218977    1.037761    1.022179
     14  C        -2.317295    0.559672    0.218569
     15  H        -3.188544   -0.039270   -0.046013
     16  H        -2.480721    1.576467   -0.144167
     17  H        -2.252578    0.594264    1.308551
   Point Group: c1    Number of degrees of freedom:    45


   Energy is   -272.164878272

 GETINT wrote B to file, NVib is           45
 Hessian Updated using Powell/Murtagh-Sargent Update
  Mixing factors:     0.996345 Powell
                      0.003655 Murtagh-Sargent

 44 Hessian modes will be used to form the next step
  Hessian Eigenvalues:
     0.002272    0.005926    0.007186    0.018180    0.027411    0.030807
     0.041040    0.043635    0.046429    0.048500    0.053730    0.056344
     0.057642    0.059124    0.061345    0.071650    0.086223    0.093038
     0.100729    0.107994    0.120724    0.137139    0.143544    0.159997
     0.160000    0.160001    0.160336    0.167224    0.185551    0.272031
     0.283590    0.299277    0.300779    0.340054    0.343287    0.346093
     0.346138    0.346700    0.348922    0.349078    0.349393    0.354851
     0.489461    0.553945
**WARNING** Hessian does not have the Desired Local Structure

 Transition State Search - Taking P-RFO Step
 Searching for Lamda that Maximizes Along the Lowest mode
 Value Taken    Lamda =   0.00293484
 Searching for Lamda that Minimizes Along All other modes
 Value Taken    Lamda =  -0.00096021
 Calculated Step too Large.  Step scaled by  0.142408
 Step Taken.  Stepsize is  0.300000

                             Maximum     Tolerance    Cnvgd?
         Gradient           0.008755      0.000300      NO
         Displacement       0.108132      0.001200      NO
         Energy change      0.000282      0.000001      NO


 New Cartesian Coordinates Obtained by Inverse Iteration

 Displacement from previous Coordinates is:  0.266825
 ----------------------------------------------------
       Standard Nuclear Orientation (Angstroms)
    I     Atom         X            Y            Z
 ----------------------------------------------------
    1      C      -1.040533    -0.033054    -0.368337
    2      H      -1.148327    -0.075136    -1.457934
    3      C      -0.706359    -1.426694     0.137475
    4      H      -0.949224    -2.275150    -0.494343
    5      H      -0.918225    -1.602004     1.192939
    6      H       0.701996    -1.172344     0.107149
    7      C       1.368567    -0.111645    -0.352013
    8      H       1.500222    -0.338287    -1.410343
    9      O       2.603647     0.165245     0.202949
   10      H       2.488798     0.457689     1.111304
   11      C       0.210308     0.815016    -0.055135
   12      H       0.240557     1.763286    -0.598857
   13      H       0.212268     1.046920     1.019102
   14      C      -2.313837     0.561293     0.226577
   15      H      -3.189406    -0.033106    -0.037997
   16      H      -2.475618     1.582305    -0.127678
   17      H      -2.243134     0.587556     1.317386
 ----------------------------------------------------
 Molecular Point Group                 C1    NOp =  1
 Largest Abelian Subgroup              C1    NOp =  1
 Nuclear Repulsion Energy =   249.4286880241 hartrees
 There are       25 alpha and       24 beta electrons
 Applying Cartesian multipole field
    Component          Value
    ---------          -----
     (2,0,0)        1.00000E-11
     (0,2,0)        2.00000E-11
     (0,0,2)       -3.00000E-11
 Nucleus-field energy     =     0.0000000062 hartrees
 Requested basis set is non-standard
 There are 138 shells and 314 basis functions
 A cutoff of  1.0D-11 yielded   9031 shell pairs
 There are     46435 function pairs (     55745 Cartesian)
 Smallest overlap matrix eigenvalue = 1.05E-05
 Guess MOs from SCF MO coefficient file
Reading MOs from coefficient file
Reading MOs from coefficient file
 An unrestricted hybrid HF-DFT SCF calculation will be
 performed using Pulay DIIS extrapolation
 Exchange:     0.5679 Hartree-Fock + 1.0000 M08SO
 SCF converges when DIIS error is below 1.0E-08
Geometry optimization detected.  Setting ReadMinima to 0
Setting SaveMinima to 0
 Inaccurate integrated density:
   Number of electrons =    49
   Numerical integral  =    48.993285062844
   Relative error      =    -0.0137039534 %
 ---------------------------------------
  Cycle       Energy         DIIS Error
 ---------------------------------------
    1    -272.1623462520      3.85E-04
    2    -272.1643786738      5.64E-05
    3    -272.1644688910      3.69E-05
    4    -272.1644895088      1.60E-05
    5    -272.1644951971      4.37E-06
    6    -272.1644957274      1.77E-06
    7    -272.1644958481      6.40E-07
    8    -272.1644958762      2.46E-07
    9    -272.1644958804      9.31E-08
   10    -272.1644958812      4.04E-08
   11    -272.1644958813      1.54E-08
   12    -272.1644958809      6.23E-09 Convergence criterion met
 ---------------------------------------
 <S^2> = 0.7602
 SCF time:  CPU 775.13 s  wall 790.56 s
 SCF   energy in the final basis set = -272.1644958809
 Total energy in the final basis set = -272.1644958809
 Analysis of SCF Wavefunction
 
 --------------------------------------------------------------
                    Orbital Energies (a.u.)
 --------------------------------------------------------------
 
 Alpha MOs
 -- Occupied --
-19.582 -10.551 -10.504 -10.497 -10.495 -10.486  -1.160  -0.929
 -0.822  -0.772  -0.724  -0.652  -0.597  -0.564  -0.538  -0.515
 -0.481  -0.473  -0.464  -0.452  -0.406  -0.396  -0.388  -0.386
 -0.224
 -- Virtual --
 -0.027  -0.017  -0.009  -0.006   0.012   0.017   0.019   0.023
  0.024   0.049   0.055   0.064   0.074   0.078   0.082   0.090
  0.100   0.113   0.119   0.123   0.128   0.130   0.136   0.138
  0.144   0.147   0.149   0.159   0.163   0.176   0.192   0.200
  0.211   0.215   0.221   0.243   0.246   0.253   0.259   0.267
  0.282   0.300   0.303   0.314   0.322   0.329   0.340   0.350
  0.356   0.383   0.388   0.432   0.438   0.461   0.469   0.478
  0.488   0.516   0.535   0.537   0.547   0.562   0.566   0.566
  0.581   0.590   0.596   0.602   0.617   0.624   0.629   0.636
  0.649   0.654   0.680   0.689   0.691   0.703   0.726   0.733
  0.764   0.766   0.807   0.831   0.847   0.858   0.888   0.912
  0.932   0.939   0.957   0.966   1.002   1.025   1.048   1.056
  1.082   1.095   1.122   1.131   1.136   1.145   1.158   1.183
  1.192   1.205   1.229   1.238   1.255   1.268   1.273   1.295
  1.304   1.309   1.314   1.329   1.338   1.351   1.357   1.369
  1.388   1.414   1.422   1.432   1.443   1.448   1.462   1.480
  1.498   1.515   1.527   1.541   1.567   1.571   1.581   1.595
  1.609   1.655   1.663   1.682   1.694   1.745   1.765   1.820
  1.918   2.115   2.168   2.252   2.327   2.406   2.458   2.481
  2.514   2.560   2.605   2.649   2.655   2.673   2.692   2.727
  2.757   2.768   2.773   2.815   2.840   2.860   2.878   2.894
  2.904   2.932   2.938   2.965   2.975   3.004   3.044   3.074
  3.104   3.123   3.158   3.167   3.194   3.204   3.229   3.255
  3.265   3.285   3.308   3.319   3.324   3.352   3.373   3.405
  3.418   3.438   3.454   3.477   3.488   3.514   3.548   3.551
  3.580   3.593   3.615   3.640   3.654   3.680   3.696   3.718
  3.748   3.757   3.779   3.786   3.819   3.846   3.873   3.885
  3.891   3.931   3.942   3.959   3.980   3.985   3.997   4.004
  4.038   4.070   4.091   4.117   4.128   4.144   4.165   4.183
  4.184   4.205   4.223   4.240   4.255   4.264   4.323   4.350
  4.367   4.381   4.432   4.442   4.454   4.469   4.500   4.543
  4.555   4.591   4.627   4.653   4.671   4.704   4.753   4.808
  4.929   4.966   5.072   5.147   5.169   5.235   5.312   5.363
  5.411   5.427   5.470   5.511   5.524   5.545   5.589   5.659
  5.665   5.669   5.798   5.977   6.557   6.932   7.153   7.183
  7.189   7.494   7.583  24.042  24.133  24.182  24.251  24.276
 49.806
 
 Beta MOs
 -- Occupied --
-19.580 -10.540 -10.505 -10.497 -10.485 -10.483  -1.153  -0.926
 -0.818  -0.762  -0.718  -0.648  -0.586  -0.556  -0.532  -0.502
 -0.477  -0.466  -0.458  -0.449  -0.403  -0.396  -0.385  -0.357
 -- Virtual --
 -0.033  -0.026  -0.018  -0.011  -0.006   0.009   0.015   0.016
  0.020   0.021   0.048   0.052   0.063   0.072   0.075   0.080
  0.086   0.099   0.111   0.117   0.120   0.126   0.128   0.134
  0.136   0.144   0.146   0.147   0.156   0.161   0.172   0.194
  0.205   0.213   0.216   0.221   0.243   0.247   0.259   0.260
  0.271   0.288   0.301   0.307   0.317   0.325   0.331   0.345
  0.355   0.364   0.387   0.390   0.433   0.442   0.462   0.471
  0.481   0.492   0.518   0.537   0.540   0.556   0.564   0.566
  0.570   0.590   0.601   0.606   0.607   0.621   0.629   0.635
  0.649   0.656   0.661   0.687   0.693   0.696   0.705   0.730
  0.740   0.769   0.772   0.811   0.834   0.853   0.861   0.893
  0.914   0.937   0.941   0.962   0.969   1.005   1.031   1.052
  1.059   1.085   1.100   1.127   1.136   1.141   1.149   1.160
  1.187   1.194   1.212   1.238   1.244   1.260   1.273   1.282
  1.298   1.310   1.317   1.324   1.335   1.341   1.360   1.361
  1.377   1.400   1.421   1.431   1.441   1.450   1.452   1.471
  1.487   1.508   1.528   1.533   1.548   1.570   1.575   1.586
  1.606   1.620   1.663   1.671   1.693   1.702   1.752   1.774
  1.832   1.925   2.127   2.179   2.255   2.333   2.415   2.481
  2.494   2.527   2.572   2.617   2.659   2.672   2.696   2.718
  2.747   2.778   2.791   2.803   2.844   2.854   2.888   2.919
  2.927   2.929   2.941   2.966   2.987   3.011   3.022   3.054
  3.104   3.120   3.150   3.176   3.184   3.200   3.237   3.249
  3.274   3.291   3.308   3.332   3.340   3.344   3.378   3.403
  3.424   3.434   3.455   3.484   3.504   3.534   3.543   3.564
  3.587   3.615   3.625   3.645   3.668   3.681   3.702   3.719
  3.733   3.764   3.782   3.791   3.801   3.843   3.865   3.881
  3.904   3.913   3.949   3.955   3.974   3.982   3.993   4.008
  4.017   4.045   4.071   4.099   4.115   4.137   4.148   4.172
  4.188   4.196   4.213   4.233   4.262   4.271   4.277   4.336
  4.372   4.389   4.399   4.445   4.463   4.490   4.501   4.519
  4.557   4.567   4.601   4.648   4.670   4.687   4.721   4.792
  4.856   4.980   5.012   5.134   5.158   5.174   5.246   5.345
  5.375   5.430   5.474   5.509   5.536   5.560   5.595   5.626
  5.663   5.675   5.691   5.800   5.975   6.558   6.933   7.159
  7.183   7.191   7.490   7.574  24.049  24.143  24.184  24.259
 24.282  49.809
 --------------------------------------------------------------
 
          Ground-State Mulliken Net Atomic Charges

     Atom                 Charge (a.u.)    Spin (a.u.)
  --------------------------------------------------------
      1 C                     0.028917      -0.025304
      2 H                     0.287014       0.004533
      3 C                    -0.664078       0.681923
      4 H                     0.191010      -0.027517
      5 H                     0.223988      -0.026446
      6 H                     0.234341      -0.101718
      7 C                    -0.424757       0.473591
      8 H                     0.247298      -0.012513
      9 O                    -0.291375       0.044428
     10 H                     0.283300      -0.002294
     11 C                    -0.403868      -0.011703
     12 H                     0.215298       0.004495
     13 H                     0.224521       0.003103
     14 C                    -0.733453      -0.014061
     15 H                     0.198050       0.002412
     16 H                     0.185515       0.006447
     17 H                     0.198279       0.000625
  --------------------------------------------------------
  Sum of atomic charges =     0.000000
  Sum of spin   charges =     1.000000

 -----------------------------------------------------------------
                    Cartesian Multipole Moments
 -----------------------------------------------------------------
    Charge (ESU x 10^10)
                 0.0000
    Dipole Moment (Debye)
         X      -1.2402      Y       0.6725      Z       0.6343
       Tot       1.5468
    Quadrupole Moments (Debye-Ang)
        XX     -46.6067     XY       0.7985     YY     -41.0448
        XZ       2.7680     YZ       1.1861     ZZ     -36.8831
    Octapole Moments (Debye-Ang^2)
       XXX      -8.4456    XXY       2.3593    XYY       2.8790
       YYY       3.2622    XXZ       6.2937    XYZ       2.6714
       YYZ      -0.8969    XZZ       9.9740    YZZ       1.2206
       ZZZ       3.9040
    Hexadecapole Moments (Debye-Ang^3)
      XXXX    -780.0378   XXXY       4.3432   XXYY    -159.0879
      XYYY      -0.3141   YYYY    -223.5699   XXXZ      29.2463
      XXYZ       7.3664   XYYZ       5.1232   YYYZ      -0.2577
      XXZZ    -118.8373   XYZZ       3.3268   YYZZ     -52.6594
      XZZZ      11.1510   YZZZ       1.3194   ZZZZ     -93.1094
 -----------------------------------------------------------------
 Calculating analytic gradient of the SCF energy
 Gradient of Coulomb and Exchange Energy
            1           2           3           4           5           6
    1   2.9199640   0.8154904   0.4290088   0.9504281   0.7832455  -0.3822666
    2   0.9243867   0.1068848   2.9637436   3.8313703   1.3925254   2.2513196
    3  -0.8685329   4.8832909   0.3302817   2.2892269  -3.9808941  -0.7731378
            7           8           9          10          11          12
    1  -0.2395121  -0.9467582 -11.8695726  -0.6469490  -1.1432127  -0.2964380
    2  -0.4004297   1.0915196   0.1532159  -1.5524676  -0.8676495  -4.2520240
    3   1.0303800   4.5871766   0.0840273  -4.5373776   1.5218503   2.1921194
           13          14          15          16          17
    1  -0.0142688   4.2955578   3.4852337   1.2328343   0.6272154
    2  -1.7433556  -1.6213243   1.6927478  -3.5656888  -0.4047744
    3  -4.1298671  -0.4676096   0.6954987   0.9153378  -3.7717705
 Gradient of SCF Energy
            1           2           3           4           5           6
    1  -0.0009282   0.0002397   0.0049094  -0.0005166   0.0003862  -0.0048246
    2   0.0005280   0.0002345  -0.0019029   0.0029751   0.0004204   0.0020929
    3   0.0004005   0.0036325  -0.0037873   0.0018285  -0.0031012   0.0062505
            7           8           9          10          11          12
    1   0.0010187  -0.0003912  -0.0014817  -0.0004624  -0.0003619   0.0002089
    2   0.0009321   0.0011021  -0.0000625  -0.0010495  -0.0004973  -0.0029009
    3  -0.0035096   0.0032487   0.0000439  -0.0026022   0.0012789   0.0018627
           13          14          15          16          17
    1  -0.0001025  -0.0009851   0.0030942   0.0005104  -0.0003131
    2  -0.0010376   0.0008245   0.0020208  -0.0034813  -0.0001983
    3  -0.0041627   0.0005148   0.0008283   0.0010579  -0.0037841
 Max gradient component =       6.251E-03
 RMS gradient           =       2.253E-03
 Gradient time:  CPU 97.65 s  wall 99.77 s
 Geometry Optimization Parameters
   NAtoms,    NIC,     NZ,  NCons,   NDum,   NFix, NCnnct, MaxDiis
       17     128      17       0       0       0       0       0

 Cartesian Hessian Update
 Hessian Updated using Powell/Murtagh-Sargent Update
  Mixing factors:     0.955355 Powell
                      0.044645 Murtagh-Sargent


** GEOMETRY OPTIMIZATION IN DELOCALIZED INTERNAL COORDINATES **
   Searching for a Transition State

   Optimization Cycle:   4

                       Coordinates (Angstroms)
     ATOM              X           Y           Z
      1  C        -1.040533   -0.033054   -0.368337
      2  H        -1.148327   -0.075136   -1.457934
      3  C        -0.706359   -1.426694    0.137475
      4  H        -0.949224   -2.275150   -0.494343
      5  H        -0.918225   -1.602004    1.192939
      6  H         0.701996   -1.172344    0.107149
      7  C         1.368567   -0.111645   -0.352013
      8  H         1.500222   -0.338287   -1.410343
      9  O         2.603647    0.165245    0.202949
     10  H         2.488798    0.457689    1.111304
     11  C         0.210308    0.815016   -0.055135
     12  H         0.240557    1.763286   -0.598857
     13  H         0.212268    1.046920    1.019102
     14  C        -2.313837    0.561293    0.226577
     15  H        -3.189406   -0.033106   -0.037997
     16  H        -2.475618    1.582305   -0.127678
     17  H        -2.243134    0.587556    1.317386
   Point Group: c1    Number of degrees of freedom:    45


   Energy is   -272.164495881

 GETINT wrote B to file, NVib is           45
 Hessian Updated using Powell/Murtagh-Sargent Update
  Mixing factors:     0.998210 Powell
                      0.001790 Murtagh-Sargent

 45 Hessian modes will be used to form the next step
  Hessian Eigenvalues:
     0.001912    0.005927    0.007245    0.018180    0.027391    0.030811
     0.041040    0.043635    0.046417    0.048504    0.053730    0.056344
     0.057641    0.059122    0.061345    0.071650    0.086223    0.093038
     0.100731    0.107993    0.120724    0.137069    0.143505    0.159997
     0.160000    0.160000    0.160003    0.160336    0.167223    0.185544
     0.272032    0.283589    0.299276    0.300778    0.340053    0.343289
     0.346094    0.346138    0.346700    0.348925    0.349078    0.349393
     0.354852    0.489462    0.553947
**WARNING** Hessian does not have the Desired Local Structure

 Transition State Search - Taking P-RFO Step
 Searching for Lamda that Maximizes Along the Lowest mode
 Value Taken    Lamda =   0.00290474
 Searching for Lamda that Minimizes Along All other modes
 Value Taken    Lamda =  -0.00091124
 Calculated Step too Large.  Step scaled by  0.174792
 Step Taken.  Stepsize is  0.300000

                             Maximum     Tolerance    Cnvgd?
         Gradient           0.007563      0.000300      NO
         Displacement       0.121388      0.001200      NO
         Energy change      0.000382      0.000001      NO


 New Cartesian Coordinates Obtained by Inverse Iteration

 Displacement from previous Coordinates is:  0.283512
 ----------------------------------------------------
       Standard Nuclear Orientation (Angstroms)
    I     Atom         X            Y            Z
 ----------------------------------------------------
    1      C      -1.043084    -0.031972    -0.373638
    2      H      -1.164232    -0.066766    -1.462819
    3      C      -0.713635    -1.431642     0.124060
    4      H      -0.903841    -2.269661    -0.540059
    5      H      -0.975335    -1.637419     1.163195
    6      H       0.700117    -1.161055     0.156411
    7      C       1.367991    -0.123147    -0.332821
    8      H       1.490058    -0.388575    -1.384237
    9      O       2.608026     0.174500     0.201138
   10      H       2.501375     0.503627     1.098261
   11      C       0.211729     0.815953    -0.065170
   12      H       0.252551     1.755637    -0.624670
   13      H       0.203622     1.065948     1.006293
   14      C      -2.308401     0.563177     0.239838
   15      H      -3.190425    -0.025005    -0.021366
   16      H      -2.468726     1.589259    -0.103241
   17      H      -2.226088     0.579031     1.331071
 ----------------------------------------------------
 Molecular Point Group                 C1    NOp =  1
 Largest Abelian Subgroup              C1    NOp =  1
 Nuclear Repulsion Energy =   249.2348014810 hartrees
 There are       25 alpha and       24 beta electrons
 Applying Cartesian multipole field
    Component          Value
    ---------          -----
     (2,0,0)        1.00000E-11
     (0,2,0)        2.00000E-11
     (0,0,2)       -3.00000E-11
 Nucleus-field energy     =     0.0000000062 hartrees
 Requested basis set is non-standard
 There are 138 shells and 314 basis functions
 A cutoff of  1.0D-11 yielded   9034 shell pairs
 There are     46446 function pairs (     55755 Cartesian)
 Smallest overlap matrix eigenvalue = 1.04E-05
 Guess MOs from SCF MO coefficient file
Reading MOs from coefficient file
Reading MOs from coefficient file
 An unrestricted hybrid HF-DFT SCF calculation will be
 performed using Pulay DIIS extrapolation
 Exchange:     0.5679 Hartree-Fock + 1.0000 M08SO
 SCF converges when DIIS error is below 1.0E-08
Geometry optimization detected.  Setting ReadMinima to 0
Setting SaveMinima to 0
 Inaccurate integrated density:
   Number of electrons =    49
   Numerical integral  =    48.991695970014
   Relative error      =    -0.0169470000 %
 ---------------------------------------
  Cycle       Energy         DIIS Error
 ---------------------------------------
    1    -272.1611516699      3.89E-04
    2    -272.1639439637      5.78E-05
    3    -272.1640449168      3.94E-05
    4    -272.1640686685      1.55E-05
    5    -272.1640749961      5.27E-06
    6    -272.1640757921      1.94E-06
    7    -272.1640760182      7.65E-07
    8    -272.1640760721      3.61E-07
    9    -272.1640760816      1.39E-07
   10    -272.1640760837      5.76E-08
   11    -272.1640760840      1.86E-08
   12    -272.1640760837      7.64E-09 Convergence criterion met
 ---------------------------------------
 <S^2> = 0.7602
 SCF time:  CPU 778.60 s  wall 796.54 s
 SCF   energy in the final basis set = -272.1640760837
 Total energy in the final basis set = -272.1640760837
 Analysis of SCF Wavefunction
 
 --------------------------------------------------------------
                    Orbital Energies (a.u.)
 --------------------------------------------------------------
 
 Alpha MOs
 -- Occupied --
-19.582 -10.551 -10.505 -10.497 -10.495 -10.486  -1.160  -0.928
 -0.822  -0.771  -0.724  -0.651  -0.597  -0.563  -0.538  -0.515
 -0.481  -0.473  -0.463  -0.452  -0.406  -0.396  -0.388  -0.386
 -0.225
 -- Virtual --
 -0.027  -0.017  -0.009  -0.006   0.012   0.017   0.019   0.022
  0.024   0.049   0.054   0.065   0.074   0.078   0.082   0.091
  0.100   0.113   0.119   0.122   0.128   0.130   0.136   0.137
  0.145   0.147   0.148   0.159   0.163   0.174   0.192   0.199
  0.211   0.215   0.220   0.243   0.245   0.251   0.259   0.267
  0.282   0.302   0.304   0.315   0.322   0.330   0.341   0.350
  0.356   0.383   0.387   0.433   0.436   0.459   0.468   0.479
  0.487   0.513   0.532   0.537   0.547   0.562   0.565   0.567
  0.581   0.591   0.593   0.604   0.615   0.623   0.626   0.635
  0.648   0.655   0.680   0.689   0.691   0.704   0.727   0.732
  0.764   0.768   0.806   0.834   0.844   0.855   0.886   0.914
  0.930   0.943   0.957   0.971   1.006   1.021   1.045   1.055
  1.079   1.098   1.122   1.129   1.138   1.149   1.160   1.182
  1.189   1.205   1.225   1.236   1.256   1.266   1.275   1.294
  1.304   1.309   1.314   1.327   1.336   1.348   1.360   1.366
  1.390   1.415   1.421   1.434   1.442   1.448   1.461   1.473
  1.496   1.512   1.529   1.541   1.567   1.573   1.578   1.595
  1.607   1.652   1.663   1.681   1.689   1.740   1.764   1.816
  1.917   2.116   2.167   2.252   2.328   2.406   2.457   2.482
  2.513   2.552   2.605   2.648   2.651   2.675   2.690   2.726
  2.751   2.769   2.778   2.813   2.837   2.859   2.877   2.893
  2.901   2.935   2.939   2.960   2.979   3.002   3.044   3.077
  3.105   3.123   3.158   3.164   3.193   3.201   3.226   3.252
  3.265   3.280   3.306   3.320   3.324   3.346   3.373   3.403
  3.411   3.438   3.451   3.479   3.486   3.510   3.544   3.553
  3.583   3.599   3.615   3.638   3.651   3.675   3.697   3.719
  3.742   3.750   3.779   3.783   3.820   3.846   3.876   3.882
  3.890   3.930   3.938   3.956   3.973   3.980   4.002   4.008
  4.040   4.066   4.083   4.113   4.127   4.142   4.163   4.179
  4.187   4.207   4.223   4.232   4.254   4.265   4.323   4.349
  4.363   4.377   4.428   4.443   4.447   4.469   4.501   4.544
  4.555   4.583   4.621   4.646   4.666   4.697   4.746   4.811
  4.930   4.966   5.067   5.147   5.169   5.235   5.303   5.361
  5.411   5.426   5.469   5.504   5.523   5.542   5.588   5.654
  5.660   5.665   5.797   5.975   6.555   6.932   7.152   7.182
  7.189   7.495   7.583  24.041  24.130  24.175  24.247  24.269
 49.807
 
 Beta MOs
 -- Occupied --
-19.580 -10.541 -10.505 -10.497 -10.486 -10.483  -1.153  -0.926
 -0.818  -0.761  -0.718  -0.648  -0.586  -0.556  -0.532  -0.503
 -0.477  -0.466  -0.457  -0.448  -0.403  -0.395  -0.385  -0.356
 -- Virtual --
 -0.033  -0.026  -0.018  -0.011  -0.007   0.009   0.016   0.016
  0.019   0.021   0.048   0.052   0.063   0.072   0.076   0.080
  0.086   0.099   0.111   0.117   0.119   0.125   0.128   0.134
  0.136   0.144   0.145   0.147   0.156   0.161   0.170   0.194
  0.205   0.213   0.216   0.220   0.243   0.246   0.256   0.261
  0.271   0.288   0.302   0.309   0.317   0.326   0.331   0.345
  0.354   0.365   0.386   0.390   0.435   0.440   0.460   0.471
  0.481   0.491   0.515   0.535   0.540   0.555   0.564   0.567
  0.570   0.590   0.599   0.605   0.609   0.619   0.629   0.632
  0.647   0.655   0.661   0.686   0.692   0.698   0.706   0.732
  0.738   0.768   0.773   0.809   0.837   0.850   0.857   0.891
  0.916   0.935   0.945   0.961   0.974   1.010   1.028   1.048
  1.058   1.083   1.103   1.128   1.131   1.143   1.154   1.162
  1.187   1.192   1.212   1.233   1.244   1.261   1.273   1.283
  1.298   1.309   1.316   1.324   1.334   1.338   1.356   1.365
  1.376   1.401   1.420   1.432   1.444   1.450   1.451   1.469
  1.482   1.506   1.524   1.535   1.547   1.569   1.578   1.584
  1.606   1.618   1.660   1.671   1.691   1.697   1.746   1.773
  1.829   1.924   2.127   2.177   2.254   2.334   2.415   2.479
  2.497   2.527   2.565   2.616   2.660   2.667   2.696   2.718
  2.745   2.779   2.795   2.799   2.844   2.850   2.884   2.920
  2.924   2.930   2.939   2.970   2.988   3.006   3.024   3.053
  3.104   3.124   3.152   3.175   3.182   3.199   3.235   3.245
  3.271   3.289   3.305   3.327   3.341   3.344   3.374   3.403
  3.422   3.426   3.454   3.479   3.506   3.533   3.540   3.563
  3.585   3.613   3.629   3.649   3.667   3.679   3.697   3.718
  3.735   3.760   3.776   3.789   3.797   3.843   3.867   3.884
  3.902   3.912   3.947   3.952   3.971   3.979   3.991   4.014
  4.019   4.046   4.063   4.091   4.111   4.137   4.146   4.169
  4.183   4.196   4.219   4.231   4.255   4.271   4.280   4.334
  4.375   4.384   4.395   4.442   4.466   4.483   4.501   4.520
  4.559   4.565   4.592   4.643   4.662   4.681   4.716   4.781
  4.859   4.978   5.016   5.129   5.157   5.173   5.246   5.338
  5.371   5.429   5.471   5.508   5.535   5.555   5.592   5.623
  5.658   5.669   5.688   5.799   5.972   6.556   6.933   7.158
  7.183   7.191   7.490   7.575  24.047  24.139  24.177  24.255
 24.275  49.810
 --------------------------------------------------------------
 
          Ground-State Mulliken Net Atomic Charges

     Atom                 Charge (a.u.)    Spin (a.u.)
  --------------------------------------------------------
      1 C                     0.066217      -0.034813
      2 H                     0.286094       0.005282
      3 C                    -0.675899       0.698694
      4 H                     0.189118      -0.029535
      5 H                     0.222623      -0.026778
      6 H                     0.239118      -0.101113
      7 C                    -0.429075       0.459462
      8 H                     0.249262      -0.012027
      9 O                    -0.294487       0.043426
     10 H                     0.283413      -0.002347
     11 C                    -0.413259      -0.006906
     12 H                     0.215369       0.003616
     13 H                     0.222452       0.003890
     14 C                    -0.744071      -0.009694
[...]
 C         -0.032 -0.047  0.044    0.035 -0.064  0.020   -0.030  0.080 -0.021
 H          0.403  0.267  0.088    0.059  0.170 -0.009   -0.187 -0.130 -0.022
 O         -0.042  0.003 -0.009   -0.020  0.004 -0.019    0.033 -0.007  0.019
 H          0.570  0.060  0.088   -0.057 -0.005 -0.025   -0.075 -0.005  0.000
 C         -0.032  0.009 -0.076   -0.003  0.042 -0.027   -0.052 -0.107 -0.039
 H         -0.194  0.109  0.103   -0.322  0.081  0.042    0.229 -0.136 -0.088
 H          0.338 -0.200 -0.034   -0.418 -0.079  0.003   -0.108 -0.067 -0.052
 C         -0.014 -0.027 -0.028   -0.097  0.015  0.121   -0.038 -0.097  0.026
 H         -0.105  0.067  0.087   -0.152  0.143 -0.018   -0.259  0.234  0.032
 H          0.089  0.015  0.034    0.018 -0.028 -0.074    0.361 -0.073 -0.129
 H          0.147  0.005 -0.039   -0.373  0.239  0.131    0.027  0.227  0.002
 TransDip   0.000  0.000  0.000    0.000  0.000  0.000    0.000  0.000  0.000

 Mode:                22                     23                     24
 Frequency:      1175.20                1212.30                1240.85
 Force Cnst:      1.8533                 1.5593                 1.1964
 Red. Mass:       2.2776                 1.8008                 1.3189
 IR Active:          YES                    YES                    YES
 IR Intens:        0.000                  0.000                  0.000
 Raman Active:       YES                    YES                    YES
               X      Y      Z        X      Y      Z        X      Y      Z
 C         -0.053  0.032 -0.084   -0.034 -0.050 -0.173    0.026 -0.028  0.032
 H         -0.206  0.152 -0.074    0.051 -0.008 -0.189    0.328 -0.209  0.015
 C          0.005 -0.013  0.060    0.022  0.017  0.066   -0.017  0.005 -0.032
 H         -0.069  0.081 -0.056   -0.100  0.191 -0.147    0.077 -0.056  0.015
 H          0.075 -0.250  0.041    0.069 -0.250  0.035   -0.045  0.160 -0.021
 H          0.109  0.035 -0.033   -0.039 -0.037 -0.068    0.000  0.018 -0.095
 C          0.211  0.003  0.022   -0.110 -0.018 -0.055   -0.023  0.026 -0.071
 H          0.614 -0.295  0.132    0.026 -0.045 -0.025    0.267 -0.301  0.021
 O         -0.155 -0.021 -0.080    0.039  0.016  0.047    0.006  0.001  0.017
 H          0.232  0.003 -0.024    0.301  0.039  0.090    0.231  0.028  0.050
 C         -0.016  0.027  0.107    0.003  0.013  0.065   -0.126  0.008  0.025
 H         -0.074 -0.059 -0.060   -0.186 -0.059 -0.068    0.731 -0.031 -0.029
 H         -0.272  0.276  0.057    0.633  0.117  0.022   -0.027  0.052  0.010
 C          0.024 -0.017  0.015    0.026  0.021  0.084    0.003  0.019  0.026
 H          0.025  0.014 -0.074    0.106 -0.002 -0.188    0.059 -0.040 -0.026
 H          0.053 -0.045 -0.087   -0.076 -0.080 -0.149   -0.014 -0.002 -0.012
 H         -0.063  0.042  0.015   -0.298  0.086  0.093   -0.087  0.008  0.035
 TransDip   0.000  0.000  0.000    0.000  0.000  0.000    0.000  0.000  0.000

 Mode:                25                     26                     27
 Frequency:      1299.82                1327.99                1346.00
 Force Cnst:      1.4569                 1.4482                 1.5809
 Red. Mass:       1.4636                 1.3937                 1.4810
 IR Active:          YES                    YES                    YES
 IR Intens:        0.000                  0.000                  0.000
 Raman Active:       YES                    YES                    YES
               X      Y      Z        X      Y      Z        X      Y      Z
 C          0.066  0.049  0.011   -0.033 -0.145  0.030   -0.150  0.076  0.012
 H         -0.468 -0.211  0.086    0.195  0.782 -0.052    0.698 -0.285 -0.059
 C          0.001 -0.012 -0.006    0.005  0.029  0.038    0.027 -0.001 -0.022
 H          0.045 -0.047  0.021   -0.030  0.154 -0.128   -0.029 -0.136  0.209
 H         -0.084  0.062 -0.002    0.027 -0.024  0.029   -0.137 -0.139 -0.036
 H         -0.005 -0.040 -0.164   -0.023 -0.029 -0.120    0.012  0.051 -0.116
 C         -0.076 -0.005 -0.111   -0.041 -0.006 -0.032   -0.014 -0.001 -0.011
 H         -0.075 -0.248 -0.084    0.021 -0.071 -0.015   -0.065 -0.060 -0.015
 O          0.004  0.019  0.058    0.008  0.009  0.017   -0.003  0.006  0.010
 H          0.536  0.049  0.142    0.142  0.002  0.041    0.101  0.003  0.028
 C          0.077 -0.009  0.057    0.060  0.029 -0.026    0.096 -0.010 -0.015
 H         -0.188 -0.107 -0.111    0.068  0.023 -0.032   -0.211 -0.007 -0.020
 H         -0.400  0.055  0.034   -0.406 -0.105  0.003   -0.354 -0.036 -0.008
 C         -0.020 -0.019 -0.034    0.010  0.034 -0.018    0.029 -0.015  0.048
 H         -0.102  0.055  0.086    0.035 -0.057  0.089    0.093 -0.021 -0.156
 H          0.010  0.038  0.091   -0.109  0.019  0.015    0.094 -0.082 -0.158
 H          0.069  0.032 -0.037   -0.053 -0.131 -0.001   -0.016  0.022  0.042
 TransDip   0.000  0.000  0.000    0.000  0.000  0.000    0.000  0.000  0.000

 Mode:                28                     29                     30
 Frequency:      1385.02                1391.56                1405.67
 Force Cnst:      1.3861                 1.4290                 1.4830
 Red. Mass:       1.2264                 1.2525                 1.2738
 IR Active:          YES                    YES                    YES
 IR Intens:        0.000                  0.000                  0.000
 Raman Active:       YES                    YES                    YES
               X      Y      Z        X      Y      Z        X      Y      Z
 C          0.007 -0.020  0.002    0.034 -0.010 -0.011    0.012  0.002  0.000
 H          0.026  0.047 -0.006   -0.097  0.027 -0.002   -0.067 -0.027  0.013
 C         -0.011  0.010 -0.028    0.003  0.001  0.019    0.004  0.016 -0.028
 H         -0.096 -0.023  0.079    0.058  0.012 -0.033   -0.079 -0.052  0.133
 H          0.151 -0.100 -0.024   -0.092  0.018  0.016    0.076 -0.136 -0.033
 H          0.038  0.126  0.647   -0.015 -0.112 -0.390   -0.010  0.111  0.472
 C          0.064 -0.040 -0.068   -0.026  0.018  0.031   -0.127  0.013 -0.021
 H         -0.291  0.233 -0.178    0.078 -0.137  0.072    0.691  0.109  0.138
 O         -0.037  0.001  0.028    0.015  0.001 -0.009    0.042 -0.004 -0.019
 H          0.340  0.023  0.085   -0.124 -0.007 -0.030   -0.250 -0.020 -0.064
 C         -0.025  0.018  0.003    0.008 -0.005 -0.002    0.045  0.000  0.031
 H          0.068  0.012 -0.014   -0.038  0.016  0.032   -0.031 -0.139 -0.194
 H         -0.014 -0.011  0.007    0.021  0.033 -0.005   -0.139 -0.143  0.057
 C         -0.051  0.033  0.026   -0.115  0.052  0.047   -0.015  0.005  0.001
 H          0.139 -0.178 -0.112    0.250 -0.337 -0.241    0.014 -0.032 -0.006
 H          0.196 -0.004 -0.163    0.414  0.008 -0.279    0.046  0.005 -0.024
 H          0.212 -0.138  0.006    0.463 -0.200  0.002    0.051 -0.029 -0.003
 TransDip   0.000  0.000  0.000    0.000  0.000  0.000    0.000  0.000  0.000

 Mode:                31                     32                     33
 Frequency:      1433.74                1464.14                1473.55
 Force Cnst:      1.4333                 1.4204                 1.3566
 Red. Mass:       1.1834                 1.1246                 1.0604
 IR Active:          YES                    YES                    YES
 IR Intens:        0.000                  0.000                  0.000
 Raman Active:       YES                    YES                    YES
               X      Y      Z        X      Y      Z        X      Y      Z
 C         -0.042  0.034  0.000    0.022 -0.005  0.004   -0.011 -0.031 -0.006
 H          0.098 -0.087 -0.009   -0.033  0.031  0.009    0.039  0.054 -0.019
 C          0.002 -0.098  0.032    0.000  0.024 -0.012    0.002  0.016 -0.003
 H         -0.014  0.289 -0.567   -0.010 -0.065  0.136   -0.021 -0.009  0.050
 H          0.172  0.631  0.102   -0.020 -0.148 -0.027   -0.001 -0.073 -0.014
 H         -0.022  0.063  0.198    0.015 -0.004  0.079    0.003  0.010  0.048
 C         -0.020 -0.001 -0.015   -0.039  0.002 -0.013   -0.014 -0.002 -0.008
 H          0.111  0.055  0.006    0.109  0.015  0.016    0.038  0.012  0.001
 O          0.003  0.000  0.000    0.010  0.000  0.002    0.003  0.001  0.002
 H         -0.003 -0.003 -0.001    0.006  0.005  0.001    0.012  0.002  0.003
 C          0.030 -0.026 -0.002    0.013 -0.079 -0.030    0.010 -0.023 -0.010
 H         -0.060  0.048  0.115    0.008  0.272  0.556    0.009  0.108  0.207
 H         -0.092  0.157 -0.033   -0.065  0.607 -0.159   -0.031  0.227 -0.056
 C          0.000 -0.004  0.010    0.009  0.014  0.004   -0.028 -0.036 -0.017
 H          0.027 -0.010 -0.066   -0.095  0.116  0.094    0.190 -0.238 -0.215
 H          0.033 -0.017 -0.042   -0.089 -0.082 -0.199    0.142  0.211  0.541
 H          0.048  0.007  0.005   -0.032 -0.236  0.016    0.071  0.603 -0.049
 TransDip   0.000  0.000  0.000    0.000  0.000  0.000    0.000  0.000  0.000

 Mode:                34                     35                     36
 Frequency:      1476.77                1662.73                2930.27
 Force Cnst:      1.3456                 1.7036                 5.4114
 Red. Mass:       1.0472                 1.0459                 1.0697
 IR Active:          YES                    YES                    YES
 IR Intens:        0.000                  0.000                  0.000
 Raman Active:       YES                    YES                    YES
               X      Y      Z        X      Y      Z        X      Y      Z
 C         -0.010  0.023 -0.021    0.022 -0.010 -0.004    0.002  0.001  0.014
 H          0.040 -0.057 -0.025   -0.026  0.015 -0.002   -0.019 -0.011 -0.183
 C          0.002 -0.007  0.004    0.025 -0.013  0.002    0.000  0.000  0.000
 H         -0.006  0.004 -0.012   -0.060  0.007  0.025    0.002  0.004  0.005
 H          0.002  0.002  0.005   -0.048 -0.016 -0.003   -0.001 -0.003 -0.001
 H          0.004 -0.003  0.000   -0.533  0.821 -0.168    0.002  0.001 -0.001
 C          0.000  0.001  0.002    0.012 -0.036  0.010   -0.003  0.001  0.001
 H         -0.002  0.003  0.002   -0.013  0.016 -0.002    0.007 -0.004 -0.035
 O          0.000  0.000  0.000    0.002  0.007 -0.002    0.001  0.000  0.000
 H         -0.004  0.000 -0.001   -0.006  0.001 -0.001    0.007 -0.001  0.008
 C          0.003 -0.006  0.001   -0.001 -0.021  0.005    0.000 -0.033 -0.066
 H         -0.035  0.005  0.015    0.018 -0.031 -0.004    0.002  0.198 -0.138
 H          0.022  0.026 -0.008   -0.003  0.023 -0.002    0.009  0.188  0.930
 C         -0.006  0.025 -0.042   -0.004  0.001  0.002   -0.001  0.000 -0.001
 H          0.107 -0.382  0.580   -0.004 -0.002  0.004    0.005  0.006  0.004
 H          0.473  0.137  0.085    0.011  0.000 -0.007    0.001 -0.013  0.005
 H         -0.468 -0.157  0.021   -0.001 -0.004  0.003   -0.003  0.001  0.007
 TransDip   0.000  0.000  0.000    0.000  0.000  0.000    0.000  0.000  0.000

 Mode:                37                     38                     39
 Frequency:      2964.74                2969.41                3019.08
 Force Cnst:      5.5496                 5.4387                 5.8717
 Red. Mass:       1.0716                 1.0469                 1.0934
 IR Active:          YES                    YES                    YES
 IR Intens:        0.000                  0.000                  0.000
 Raman Active:       YES                    YES                    YES
               X      Y      Z        X      Y      Z        X      Y      Z
 C         -0.007 -0.004 -0.068   -0.005 -0.002 -0.039    0.002  0.000  0.008
 H          0.088  0.052  0.818    0.054  0.029  0.473   -0.013 -0.006 -0.089
 C          0.001  0.001  0.005    0.000  0.000  0.003    0.000  0.001 -0.001
 H         -0.009 -0.015 -0.010   -0.003 -0.005 -0.002    0.001 -0.001 -0.001
 H          0.003  0.005 -0.049    0.003  0.001 -0.038   -0.001  0.000  0.010
 H         -0.001  0.001 -0.002    0.000  0.001  0.000    0.003  0.007 -0.002
 C         -0.001  0.000  0.001    0.000  0.000  0.001    0.001 -0.002 -0.011
 H          0.002 -0.002 -0.018    0.001 -0.001 -0.010   -0.024  0.017  0.140
 O          0.000  0.000  0.000    0.000  0.000  0.000    0.000  0.000  0.000
 H          0.002  0.000  0.001    0.001  0.000  0.001   -0.002  0.000 -0.003
 C          0.000 -0.012 -0.005    0.000 -0.007 -0.004   -0.001 -0.064  0.058
 H         -0.003  0.116 -0.071    0.000  0.062 -0.038    0.007  0.819 -0.471
 H          0.002  0.023  0.125    0.004  0.016  0.081   -0.004 -0.063 -0.226
 C         -0.012  0.011  0.025    0.031 -0.024 -0.020   -0.003  0.004 -0.011
 H          0.144  0.102  0.046   -0.329 -0.243 -0.098    0.020  0.018  0.003
 H          0.038 -0.219  0.088   -0.078  0.504 -0.196    0.009 -0.074  0.027
 H         -0.041 -0.018 -0.429    0.049  0.021  0.527    0.009  0.005  0.095
 TransDip   0.000  0.000  0.000    0.000  0.000  0.000    0.000  0.000  0.000

 Mode:                40                     41                     42
 Frequency:      3034.28                3041.07                3051.98
 Force Cnst:      5.9717                 5.7673                 6.0419
 Red. Mass:       1.1009                 1.0585                 1.1009
 IR Active:          YES                    YES                    YES
 IR Intens:        0.000                  0.000                  0.000
 Raman Active:       YES                    YES                    YES
               X      Y      Z        X      Y      Z        X      Y      Z
 C         -0.001  0.000 -0.013    0.001 -0.003 -0.005   -0.001 -0.001 -0.005
 H          0.013  0.009  0.135    0.006  0.005  0.057    0.005  0.005  0.051
 C         -0.001 -0.003  0.007    0.014  0.040 -0.052    0.000  0.000  0.002
 H          0.009  0.027  0.019   -0.137 -0.370 -0.248    0.000  0.003  0.001
 H          0.007  0.006 -0.093   -0.043 -0.078  0.871    0.001  0.001 -0.019
 H          0.000 -0.002  0.001    0.005  0.005 -0.003   -0.001  0.000  0.000
 C          0.000  0.001  0.002   -0.001  0.000  0.002   -0.001  0.000  0.003
 H          0.004 -0.003 -0.027    0.003 -0.002 -0.019    0.006 -0.003 -0.031
 O          0.000  0.000  0.000    0.000  0.000  0.000    0.000  0.000  0.000
 H          0.000  0.000  0.001    0.000  0.001  0.001    0.000  0.000  0.001
 C          0.000  0.007 -0.007    0.000  0.000 -0.002    0.000  0.001 -0.001
 H         -0.003 -0.090  0.051    0.001 -0.008  0.005    0.000 -0.008  0.004
 H          0.003  0.010  0.033    0.002  0.004  0.014    0.002  0.002  0.007
 C         -0.019  0.046 -0.075   -0.002  0.003 -0.007   -0.055 -0.069 -0.027
 H          0.064  0.058  0.001    0.012  0.011  0.002    0.708  0.493  0.197
 H          0.107 -0.656  0.235    0.007 -0.048  0.018   -0.069  0.333 -0.138
 H          0.054  0.042  0.664    0.003  0.006  0.070    0.011 -0.003  0.262
 TransDip   0.000  0.000  0.000    0.000  0.000  0.000    0.000  0.000  0.000

 Mode:                43                     44                     45
 Frequency:      3065.17                3142.78                3874.94
 Force Cnst:      6.0180                 6.4480                 9.4307
 Red. Mass:       1.0872                 1.1080                 1.0660
 IR Active:          YES                    YES                    YES
 IR Intens:        0.000                  0.000                  0.000
 Raman Active:       YES                    YES                    YES
               X      Y      Z        X      Y      Z        X      Y      Z
 C          0.000 -0.001 -0.003   -0.001  0.001 -0.005    0.000  0.000  0.000
 H          0.006  0.003  0.032    0.007  0.000  0.049    0.000  0.000  0.000
 C          0.000  0.001  0.000   -0.020 -0.057 -0.074    0.000  0.000  0.000
 H         -0.005 -0.014 -0.010    0.277  0.718  0.441    0.000  0.000  0.000
 H         -0.001 -0.001  0.007   -0.033 -0.053  0.445    0.001  0.000  0.000
 H          0.007  0.003 -0.004   -0.001 -0.002 -0.001    0.004  0.002  0.000
 C          0.017 -0.012 -0.081    0.000  0.000 -0.001    0.001 -0.001 -0.002
 H         -0.193  0.119  0.958   -0.003  0.001  0.010   -0.003  0.001  0.013
 O         -0.001  0.001  0.001    0.000  0.000  0.000    0.010 -0.014 -0.060
 H          0.011 -0.001 -0.013    0.001  0.000  0.000   -0.169  0.227  0.957
 C         -0.001  0.009 -0.011    0.000  0.000  0.000    0.000  0.000  0.001
 H          0.002 -0.109  0.063   -0.001  0.000  0.000    0.000 -0.001  0.000
 H         -0.002  0.018  0.071    0.001  0.002  0.004   -0.003  0.000 -0.005
 C         -0.002 -0.001 -0.001    0.000  0.000 -0.001    0.000  0.000  0.000
 H          0.022  0.014  0.005    0.004  0.002  0.000    0.000  0.000  0.000
 H         -0.001  0.002 -0.001    0.001 -0.003  0.002    0.000  0.000  0.000
 H          0.000  0.000  0.012   -0.001  0.002  0.006    0.000  0.000  0.000
 TransDip   0.000  0.000  0.000    0.000  0.000  0.000    0.000  0.000  0.000

 STANDARD THERMODYNAMIC QUANTITIES AT   298.15 K  AND     1.00 ATM

   This Molecule has  1 Imaginary Frequencies
   Zero point vibrational energy:       91.023 kcal/mol

   Atom    1 Element C  Has Mass   12.00000
   Atom    2 Element H  Has Mass    1.00783
   Atom    3 Element C  Has Mass   12.00000
   Atom    4 Element H  Has Mass    1.00783
   Atom    5 Element H  Has Mass    1.00783
   Atom    6 Element H  Has Mass    1.00783
   Atom    7 Element C  Has Mass   12.00000
   Atom    8 Element H  Has Mass    1.00783
   Atom    9 Element O  Has Mass   15.99491
   Atom   10 Element H  Has Mass    1.00783
   Atom   11 Element C  Has Mass   12.00000
   Atom   12 Element H  Has Mass    1.00783
   Atom   13 Element H  Has Mass    1.00783
   Atom   14 Element C  Has Mass   12.00000
   Atom   15 Element H  Has Mass    1.00783
   Atom   16 Element H  Has Mass    1.00783
   Atom   17 Element H  Has Mass    1.00783
   Molecular Mass:    87.081040 amu
   Principal axes and moments of inertia in atomic units:
                             1           2           3
    Eigenvalues --      247.19526   937.48485  1067.50962
          X               0.99997    -0.00624    -0.00361
          Y               0.00628     0.99990     0.01252
          Z               0.00353    -0.01254     0.99992
   Rotational Symmetry Number is   1
   The Molecule is an Asymmetric Top
   Translational Enthalpy:        0.889 kcal/mol
   Rotational Enthalpy:           0.889 kcal/mol
   Vibrational Enthalpy:         93.845 kcal/mol
   gas constant (RT):             0.592 kcal/mol
   Translational Entropy:        39.306  cal/mol.K
   Rotational Entropy:           27.005  cal/mol.K
   Vibrational Entropy:          15.637  cal/mol.K

   Total Enthalpy:               96.215 kcal/mol
   Total Entropy:                81.948  cal/mol.K
Archival summary:
1\1\node27\FREQ\ProcedureUnspecified\BasisUnspecified\1511(2)\edames\TueApr2208:49:552014TueApr2208:49:552014\0\\#,FREQ,ProcedureUnspecified,BasisUnspecified,\\0,2\C\H,1,1.1018\C,1,1.52057,2,108.462\H,3,1.0907,1,118.817,2,28.618,0\H,3,1.09581,1,114.943,2,167.69,0\H,3,1.42666,1,92.1246,2,-86.119,0\C,6,1.35579,3,130.641,1,-10.7224,0\H,7,1.0951,6,103.653,3,103.582,0\O,7,1.38429,6,116.084,3,-136.868,0\H,9,0.963756,7,109.793,6,70.2356,0\C,7,1.51769,6,93.0613,3,-13.1561,0\H,11,1.09873,7,114.243,6,154.774,0\H,11,1.10587,7,108.59,6,-85.2687,0\C,1,1.5302,2,108.981,3,125.116,0\H,14,1.0966,1,111.426,2,-59.0264,0\H,14,1.0987,1,111.229,2,61.7735,0\H,14,1.09947,1,110,2,-178.627,0\\\@

 Total job time:  52340.16s(wall), 51951.05s(cpu) 
 Tue Apr 22 08:49:55 2014

        *************************************************************
        *                                                           *
        *  Thank you very much for using Q-Chem.  Have a nice day.  *
        *                                                           *
        *************************************************************


0 sent ACK to 0 
now end server 0 ... 
cleanup process ... done
remove work dirs /tmp/qchem31356.0 -- /tmp/qchem31356.3
rm -rf /tmp/qchem31356.0
rm -rf /tmp/qchem31356.1
rm -rf /tmp/qchem31356.2
rm -rf /tmp/qchem31356.3
rm -rf /tmp/qchem31356
