
Running Job 1 of 2 ts34MG3S.in
qchem ts34MG3S.in_32076.0 /tmp/qchem32076/ 4
/opt/qchem/bin/mpi/mpirun_qchem -machinefile /tmp/275506.1.normal2/hostfile -np 4 /opt/qchem/exe/qcprog.exe ts34MG3S.in_32076.0 /tmp/qchem32076/

Process 0 of 4 is on node40.cluster - thread support 0
Process 2 of 4 is on node40.cluster - thread support 0
Process 3 of 4 is on node40.cluster - thread support 0
initial socket setup ...start
initial socket setup ...done 
now start server 0 ... 
                  Welcome to Q-Chem
     A Quantum Leap Into The Future Of Chemistry

 Y. Shao, L. Fusti-Molnar, Y. Jung, J. Kussmann, C. Ochsenfeld, S. T. Brown, 
 A. T. B. Gilbert, L. V. Slipchenko, S. V. Levchenko, D. P. O'Neill, 
 R. A. DiStasio Jr., R. C. Lochan, T. Wang, G. J. O. Beran, N. A. Besley, 
 J. M. Herbert, C. Y. Lin, T. Van Voorhis, S. H. Chien, A. Sodt, R. P. Steele, 
 V. A. Rassolov, P. E. Maslen, P. P. Korambath, R. D. Adamson, B. Austin, 
 J. Baker, E. F. C. Byrd, H. Dachsel, R. J. Doerksen, A. Dreuw, B. D. Dunietz, 
 A. D. Dutoi, T. R. Furlani, S. R. Gwaltney, A. Heyden, S. Hirata, C.-P. Hsu, 
 G. Kedziora, R. Z. Khaliullin, P. Klunzinger, A. M. Lee, M. S. Lee, W. Liang, 
 I. Lotan, N. Nair, B. Peters, E. I. Proynov, P. A. Pieniazek, Y. M. Rhee, 
 J. Ritchie, E. Rosta, C. D. Sherrill, A. C. Simmonett, J. E. Subotnik, 
 H. L. Woodcock III, W. Zhang, A. T. Bell, A. K. Chakraborty, D. M. Chipman, 
 F. J. Keil, A. Warshel, W. J. Hehre, H. F. Schaefer III, J. Kong, 
 A. I. Krylov, P. M. W. Gill, M. Head-Gordon

 Additional authors for Version 3.1: 
 Z. Gan, Y. Zhao, N. E. SchultzD. Truhlar, E. Epifanovsky, M. Oana

 Additional authors for Version 3.2: 
 R. Baer, B. R. Brooks, D. Casanova, J.-D. Chai, C.-L. Cheng, C. Cramer, 
 D. Crittenden, A. Ghysels, G. Hawkins, E. G. Hohenstein, C. Kelley, 
 W. Kurlancheek, D. Liotard, E. Livshits, P. Manohar, A. Marenich, 
 D. Neuhauser, R. Olson, M. A. Rohrdanz, K. S. Thanthiriwatte, A. J. W. Thom, 
 V. Vanovschi, C. F. Williams, Q. Wu, Z.-Q. You

 Additional authors for Version 4.0: 
 A. Aspuru-Guzik, Y. Bernard, C. Chang, J. Deng, A. Dreuw, M. Diedenhofen, 
 R. G. Edgar, D. Ghosh, W. A. Goddard III, M. Goldey, L. D. Jacobson, 
 M. Gordon, B. Kaduk, I. Kaliman, K. Khistyaev, R. King, A. Klamt, 
 D. Kosenkov, T. Kus, D. Lambrecht, A. Landau, A. W. Lange, K. Lawler, F. Liu, 
 J. Liu, R. Olivares-Amaya, S. P. Mao, J. Parkhill, N. Russ, M. Schmidt, 
 N. Shenvi, D. Small, Y. C. Su, E. Sundstrom, L. Vogt, O. Vydrov, M. Watson, 
 M. Wormit, X. Xu, S. Yeganeh, I. Y. Zhang, D. Zuev

 Additional authors for Version 4.1: 
 X. Feng, M. W. D. Hanson-Heine, P. Horn, H. Ji, A. Laurent, R. Peverati, 
 N. Mardirossian, N. Sergueev, S. Sharada, P. Zimmerman


 Q-Chem, Version 4.1, Q-Chem, Inc., Pittsburgh, PA (2013).

 Intel X86 Linux Version 4.1.0.1 

 Q-chem begins on Sat Mar 29 12:57:29 2014  

Host: 
0

     Scratch files written to /tmp/qchem32076.0//
 Oct1213 14483_epif 4150   
 Parallel job on  4  processors
Processing $rem in /opt/qchem/config/preferences.
 MEM_TOTAL  2000 
Warning: disabling incdft.
 Q-Chem warning in module /home/scratch/svnadmin/14483_epif/qchem/forms1/BasisType.C, line 1125:

 Setting pure/cartesian flag to 2111 for general basis


Finally everything over in PARseQInput

--------------------------------------------------------------
User input:
--------------------------------------------------------------
$rem
JOBTYPE ts
EXCHANGE M062X
BASIS gen
GUI=2
UNRESTRICTED TRUE
CORRELATION NONE
$end

$comment
c5h11o-2
$end

$molecule
0 2
C      -0.847766    -0.345183     0.285306
C       0.238489     0.347518    -0.548169
C       1.441128     0.883237     0.179032
O       2.379944    -0.133298     0.520831
C      -1.722674     0.905077     0.261382
C      -1.475353    -1.560040    -0.381767
H      -0.505912    -0.600504     1.297048
H       0.421698    -0.071590    -1.540568
H       2.000206     1.581682    -0.445573
H       1.931843    -0.795190     1.066537
H      -2.689528     0.833907    -0.235829
H      -0.734199     1.351837    -0.618740
H      -1.683248     1.561688     1.128612
H      -1.853736    -1.294688    -1.376127
H      -2.315839    -1.943353     0.205085
H      -0.746791    -2.367216    -0.505050
H       1.120244     1.420444     1.084971
$end

$basis
H  0
S  3 1.00
3.386500000000E+01 2.549380000000E-02
5.094790000000E+00 1.903730000000E-01
1.158790000000E+00 8.521610000000E-01
S  1 1.00
3.258400000000E-01 1.000000000000E+00
S  1 1.00
1.027410000000E-01 1.000000000000E+00
S  1 1.00
3.600000000000E-02 1.000000000000E+00
P  1 1.00
1.500000000000E+00 1.000000000000E+00
P  1 1.00
3.750000000000E-01 1.000000000000E+00
****
C 0
S  6 1.00
4.563240000000E+03 1.966650000000E-03
6.820240000000E+02 1.523060000000E-02
1.549730000000E+02 7.612690000000E-02
4.445530000000E+01 2.608010000000E-01
1.302900000000E+01 6.164620000000E-01
1.827730000000E+00 2.210060000000E-01
S  3 1.00
2.096420000000E+01 1.146600000000E-01
4.803310000000E+00 9.199990000000E-01
1.459330000000E+00 -3.030680000000E-03
S  1 1.00
4.834560000000E-01 1.000000000000E+00
S  1 1.00
1.455850000000E-01 1.000000000000E+00
S  1 1.00
4.380000000000E-02 1.000000000000E+00
P  3 1.00
2.096420000000E+01 4.024870000000E-02
4.803310000000E+00 2.375940000000E-01
1.459330000000E+00 8.158540000000E-01
P  1 1.00
4.834560000000E-01 1.000000000000E+00
P  1 1.00
1.455850000000E-01 1.000000000000E+00
P  1 1.00
4.380000000000E-02 1.000000000000E+00
D  1 1.00
1.252000000000E+00 1.000000000000E+00
D  1 1.00
3.130000000000E-01 1.000000000000E+00
F  1 1.00
8.000000000000E-01 1.000000000000E+00
****
O  0
S  6 1.00
8.588500000000E+03 1.895150000000E-03
1.297230000000E+03 1.438590000000E-02
2.992960000000E+02 7.073200000000E-02
8.737710000000E+01 2.400010000000E-01
2.567890000000E+01 5.947970000000E-01
3.740040000000E+00 2.808020000000E-01
S  3 1.00
4.211750000000E+01 1.138890000000E-01
9.628370000000E+00 9.208110000000E-01
2.853320000000E+00 -3.274470000000E-03
S  1 1.00
9.056610000000E-01 1.000000000000E+00
S  1 1.00
2.556110000000E-01 1.000000000000E+00
S  1 1.00
8.450000000000E-02 1.000000000000E+00
P  3 1.00
4.211750000000E+01 3.651140000000E-02
9.628370000000E+00 2.371530000000E-01
2.853320000000E+00 8.197020000000E-01
P  1 1.00
9.056610000000E-01 1.000000000000E+00
P  1 1.00
2.556110000000E-01 1.000000000000E+00
P  1 1.00
8.450000000000E-02 1.000000000000E+00
D  1 1.00
2.584000000000E+00 1.000000000000E+00
D  1 1.00
6.460000000000E-01 1.000000000000E+00
F  1 1.00
1.400000000000E+00 1.000000000000E+00
****
$end

--------------------------------------------------------------
 ----------------------------------------------------
       Standard Nuclear Orientation (Angstroms)
    I     Atom         X            Y            Z
 ----------------------------------------------------
    1      C      -0.865822    -0.106753     0.345814
    2      C       0.238970     0.209595    -0.670957
    3      C       1.610499     0.520492    -0.137657
    4      O       2.330859    -0.646086     0.251856
    5      C      -1.433197     1.305452     0.232017
    6      C      -1.826944    -1.203317    -0.088376
    7      H      -0.469911    -0.321975     1.347118
    8      H       0.201245    -0.348923    -1.609417
    9      H       2.232302     0.991394    -0.900637
   10      H       1.814987    -1.116982     0.921799
   11      H      -2.444308     1.412077    -0.159615
   12      H      -0.483944     1.402666    -0.788160
   13      H      -1.141995     2.026050     0.994067
   14      H      -2.253801    -0.967769    -1.070540
   15      H      -2.654469    -1.307276     0.620240
   16      H      -1.319220    -2.169545    -0.166821
   17      H       1.531202     1.216160     0.712073
 ----------------------------------------------------
 Molecular Point Group                 C1    NOp =  1
 Largest Abelian Subgroup              C1    NOp =  1
 Nuclear Repulsion Energy =   247.8076235275 hartrees
 There are       25 alpha and       24 beta electrons
 Requested basis set is non-standard
 There are 138 shells and 314 basis functions

Total QAlloc Memory Limit   2000 MB
Mega-Array Size        61 MB
MEM_STATIC part        62 MB
 A cutoff of  1.0D-11 yielded   9021 shell pairs
 There are     46437 function pairs (     55764 Cartesian)
 Smallest overlap matrix eigenvalue = 1.29E-05

  Scale SEOQF with 1.000000e-01/1.000000e-01/1.000000e-01

 Standard Electronic Orientation quadrupole field applied
 Nucleus-field energy     =     0.0000000062 hartrees
 Guess MOs from core Hamiltonian diagonalization
 An unrestricted hybrid HF-DFT SCF calculation will be
 performed using Pulay DIIS extrapolation
 Exchange:     0.5400 Hartree-Fock + 1.0000 M062X
 SCF converges when DIIS error is below 1.0E-08
 ---------------------------------------
  Cycle       Energy         DIIS Error
 ---------------------------------------
    1    -192.5099155356      9.21E-02
    2    -165.5366546934      5.07E-02
    3    -175.2377793676      6.35E-02
    4    -246.7108681277      3.56E-02
    5    -269.1924455681      1.52E-02
    6    -270.8423624212      9.47E-03
    7    -271.7681807098      6.08E-03
    8    -272.1767593636      1.27E-03
    9    -272.1985194450      5.54E-04
   10    -272.2035331982      1.56E-04
   11    -272.2041535965      6.19E-05
   12    -272.2042626233      1.52E-05
   13    -272.2042814079      6.97E-06
   14    -272.2042871161      2.11E-06
   15    -272.2042882136      7.69E-07
   16    -272.2042883588      3.57E-07
   17    -272.2042883840      1.00E-07
   18    -272.2042883874      3.56E-08
   19    -272.2042883876      9.15E-09 Convergence criterion met
 ---------------------------------------
 <S^2> = 0.7608
 SCF time:  CPU 357.08 s  wall 395.80 s
 SCF   energy in the final basis set = -272.2042883876
 Total energy in the final basis set = -272.2042883876
 Analysis of SCF Wavefunction
 
 --------------------------------------------------------------
                    Orbital Energies (a.u.)
 --------------------------------------------------------------
 
 Alpha MOs
 -- Occupied --
-19.623 -10.586 -10.552 -10.548 -10.546 -10.533  -1.143  -0.937
 -0.823  -0.783  -0.710  -0.649  -0.589  -0.559  -0.522  -0.515
 -0.496  -0.465  -0.462  -0.430  -0.408  -0.385  -0.375  -0.357
 -0.225
 -- Virtual --
 -0.005   0.007   0.011   0.017   0.034   0.037   0.041   0.043
  0.049   0.067   0.071   0.082   0.087   0.099   0.102   0.116
  0.120   0.127   0.135   0.139   0.144   0.149   0.151   0.159
  0.166   0.169   0.177   0.180   0.183   0.190   0.193   0.208
  0.219   0.225   0.240   0.245   0.251   0.261   0.271   0.273
  0.282   0.301   0.316   0.328   0.336   0.347   0.355   0.363
  0.387   0.393   0.420   0.452   0.460   0.469   0.474   0.488
  0.517   0.525   0.539   0.544   0.559   0.586   0.590   0.597
  0.606   0.612   0.617   0.623   0.628   0.634   0.644   0.653
  0.661   0.664   0.678   0.708   0.716   0.721   0.738   0.743
  0.769   0.805   0.806   0.821   0.875   0.889   0.917   0.947
  0.956   0.964   0.987   1.009   1.019   1.035   1.041   1.071
  1.081   1.109   1.120   1.139   1.149   1.172   1.181   1.194
  1.214   1.226   1.243   1.258   1.275   1.276   1.308   1.314
  1.330   1.342   1.360   1.368   1.377   1.389   1.401   1.415
  1.416   1.436   1.444   1.452   1.481   1.484   1.493   1.503
  1.533   1.536   1.557   1.565   1.582   1.589   1.602   1.604
  1.630   1.652   1.671   1.677   1.698   1.745   1.780   1.795
  1.957   2.082   2.127   2.297   2.320   2.447   2.475   2.485
  2.512   2.547   2.604   2.646   2.656   2.697   2.718   2.746
  2.756   2.791   2.816   2.830   2.860   2.896   2.915   2.958
  2.981   2.983   3.000   3.018   3.046   3.068   3.082   3.102
  3.120   3.134   3.161   3.172   3.181   3.205   3.224   3.236
  3.261   3.271   3.308   3.323   3.333   3.361   3.384   3.397
  3.415   3.431   3.455   3.479   3.512   3.533   3.567   3.580
  3.595   3.608   3.625   3.660   3.666   3.696   3.711   3.725
  3.756   3.759   3.768   3.787   3.804   3.839   3.854   3.896
  3.932   3.935   3.960   3.996   4.002   4.046   4.072   4.077
  4.087   4.115   4.118   4.132   4.165   4.205   4.214   4.227
  4.235   4.244   4.269   4.276   4.303   4.336   4.351   4.390
  4.399   4.432   4.472   4.475   4.491   4.507   4.512   4.529
  4.556   4.592   4.623   4.637   4.774   4.792   4.816   4.874
  4.914   5.002   5.103   5.205   5.239   5.257   5.285   5.414
  5.456   5.457   5.507   5.520   5.544   5.564   5.575   5.611
  5.650   5.662   5.818   5.940   6.488   6.981   7.162   7.208
  7.220   7.516   7.646  24.228  24.276  24.352  24.440  24.494
 50.134
 
 Beta MOs
 -- Occupied --
-19.622 -10.586 -10.552 -10.543 -10.540 -10.533  -1.140  -0.924
 -0.817  -0.771  -0.697  -0.642  -0.586  -0.542  -0.515  -0.507
 -0.492  -0.462  -0.455  -0.422  -0.406  -0.376  -0.364  -0.350
 -- Virtual --
 -0.027  -0.003   0.009   0.013   0.024   0.037   0.041   0.045
  0.045   0.053   0.071   0.076   0.080   0.089   0.100   0.102
  0.120   0.121   0.128   0.137   0.140   0.142   0.148   0.151
  0.161   0.168   0.170   0.175   0.180   0.185   0.193   0.196
  0.211   0.219   0.227   0.242   0.244   0.252   0.261   0.271
  0.276   0.286   0.301   0.319   0.330   0.335   0.347   0.356
  0.366   0.392   0.394   0.420   0.453   0.465   0.472   0.477
  0.489   0.521   0.529   0.547   0.550   0.562   0.586   0.591
  0.598   0.607   0.614   0.618   0.628   0.631   0.639   0.646
  0.655   0.666   0.672   0.686   0.709   0.718   0.726   0.741
  0.746   0.774   0.807   0.811   0.824   0.876   0.890   0.918
  0.950   0.956   0.967   0.989   1.010   1.019   1.037   1.043
  1.073   1.083   1.110   1.122   1.139   1.149   1.176   1.185
  1.195   1.215   1.229   1.245   1.257   1.277   1.279   1.311
  1.316   1.333   1.344   1.363   1.371   1.380   1.394   1.404
  1.418   1.421   1.438   1.447   1.455   1.482   1.485   1.497
  1.509   1.534   1.537   1.559   1.572   1.587   1.594   1.604
  1.611   1.638   1.657   1.674   1.684   1.702   1.748   1.784
  1.800   1.959   2.086   2.129   2.298   2.321   2.453   2.479
  2.496   2.517   2.552   2.609   2.653   2.659   2.717   2.729
  2.757   2.760   2.800   2.823   2.839   2.876   2.907   2.922
  2.974   2.985   2.995   3.012   3.026   3.069   3.086   3.094
  3.118   3.140   3.156   3.170   3.182   3.196   3.216   3.236
  3.242   3.275   3.279   3.318   3.343   3.346   3.377   3.399
  3.411   3.429   3.446   3.470   3.494   3.524   3.556   3.576
  3.596   3.609   3.626   3.640   3.672   3.679   3.704   3.728
  3.732   3.764   3.766   3.786   3.795   3.821   3.842   3.859
  3.916   3.941   3.951   3.980   4.005   4.007   4.049   4.081
  4.083   4.091   4.119   4.130   4.142   4.178   4.220   4.221
  4.230   4.243   4.248   4.279   4.292   4.309   4.345   4.361
  4.398   4.408   4.445   4.480   4.492   4.501   4.517   4.521
  4.536   4.569   4.601   4.627   4.642   4.780   4.791   4.830
  4.889   4.934   5.013   5.123   5.211   5.241   5.262   5.298
  5.417   5.462   5.478   5.518   5.545   5.559   5.574   5.586
  5.612   5.653   5.667   5.820   5.940   6.487   6.983   7.163
  7.211   7.223   7.517   7.648  24.236  24.286  24.352  24.441
 24.498  50.133
 --------------------------------------------------------------
 
          Ground-State Mulliken Net Atomic Charges

     Atom                 Charge (a.u.)    Spin (a.u.)
  --------------------------------------------------------
      1 C                     0.316850      -0.110642
      2 C                    -0.262095       0.572488
      3 C                    -0.442579      -0.000024
      4 O                    -0.268332       0.022386
      5 C                    -0.589474       0.614684
      6 C                    -0.548134       0.029422
      7 H                     0.169927       0.003346
      8 H                     0.199930      -0.022354
      9 H                     0.145835       0.002155
     10 H                     0.238144       0.000770
     11 H                     0.159799      -0.014369
     12 H                     0.135287      -0.069896
     13 H                     0.148344      -0.020875
     14 H                     0.138424      -0.001142
     15 H                     0.152235      -0.002871
     16 H                     0.138767      -0.003006
     17 H                     0.167072      -0.000074
  --------------------------------------------------------
  Sum of atomic charges =     0.000000
  Sum of spin   charges =     1.000000

 -----------------------------------------------------------------
                    Cartesian Multipole Moments
 -----------------------------------------------------------------
    Charge (ESU x 10^10)
                 0.0000
    Dipole Moment (Debye)
         X      -1.6845      Y       0.1881      Z       0.6731
       Tot       1.8237
    Quadrupole Moments (Debye-Ang)
        XX     -46.3164     XY       2.4769     YY     -39.8645
        XZ       0.6544     YZ      -0.8174     ZZ     -38.5365
    Octapole Moments (Debye-Ang^2)
       XXX     -12.3998    XXY       5.9407    XYY       5.1242
       YYY      -6.8674    XXZ      -2.0645    XYZ      -2.5584
       YYZ       4.7890    XZZ       6.4328    YZZ      -3.4559
       ZZZ       2.7721
    Hexadecapole Moments (Debye-Ang^3)
      XXXX    -710.5699   XXXY      15.9062   XXYY    -154.2945
      XYYY      -5.4680   YYYY    -261.0197   XXXZ      -2.5409
      XXYZ      -9.0376   XYYZ       3.7497   YYYZ       0.3491
      XXZZ    -123.4770   XYZZ      -1.7106   YYZZ     -59.8852
      XZZZ       5.1490   YZZZ      -0.7864   ZZZZ    -108.3470
 -----------------------------------------------------------------
 Calculating analytic gradient of the SCF energy
 Gradient of Coulomb and Exchange Energy
            1           2           3           4           5           6
    1   3.0389213   0.1171532  -3.7291527 -10.4109089   3.5016043   3.1397857
    2  -0.6711930  -0.7316193  -2.3468738   4.7248224  -3.6612725   3.9581704
    3  -1.4408264   3.5017706   0.2968480  -0.0122636  -0.7443804   0.1824099
            7           8           9          10          11          12
    1  -1.2569565  -0.1257652  -2.8754934   1.3701040   4.1587314   0.1013831
    2   0.8378961   2.1983791  -2.3200054   2.7948532  -1.0237134  -2.1094275
    3  -4.4047087   4.3406407   3.3622270  -3.2191512   1.4959870   1.3955072
           13          14          15          16          17
    1  -0.7990603   2.0120622   3.2548578  -1.2228658  -0.2744000
    2  -3.3476181  -0.1839384   0.8064937   3.9379588  -2.8629124
    3  -2.9269776   3.3868364  -2.3468113   0.3973382  -3.2644454
 Gradient of SCF Energy
            1           2           3           4           5           6
    1  -0.0023479  -0.0014937  -0.0010278   0.0063097   0.0006319   0.0011144
    2   0.0009067   0.0033239  -0.0009243   0.0033606  -0.0017080   0.0012487
    3  -0.0019081   0.0011401   0.0002000  -0.0055530   0.0010032   0.0004835
            7           8           9          10          11          12
    1   0.0011260  -0.0000871   0.0020091  -0.0041327  -0.0025417   0.0016613
    2  -0.0003295  -0.0022870   0.0001890  -0.0039147  -0.0001527   0.0000096
    3   0.0033101  -0.0025708  -0.0014237   0.0054636  -0.0009482  -0.0025316
           13          14          15          16          17
    1   0.0013882  -0.0016624  -0.0022883   0.0011742   0.0001668
    2   0.0015167   0.0005173  -0.0005011  -0.0026844   0.0014292
    3   0.0020052  -0.0028209   0.0021168  -0.0003958   0.0024297
 Max gradient component =       6.310E-03
 RMS gradient           =       2.304E-03
 Gradient time:  CPU 59.36 s  wall 68.33 s
 Geometry Optimization Parameters
   NAtoms,    NIC,     NZ,  NCons,   NDum,   NFix, NCnnct, MaxDiis
       17     128       0       0       0       0       0       0


** GEOMETRY OPTIMIZATION IN DELOCALIZED INTERNAL COORDINATES **
   Searching for a Transition State

   Optimization Cycle:   1

                       Coordinates (Angstroms)
     ATOM              X           Y           Z
      1  C        -0.865822   -0.106753    0.345814
      2  C         0.238970    0.209595   -0.670957
      3  C         1.610499    0.520492   -0.137657
      4  O         2.330859   -0.646086    0.251856
      5  C        -1.433197    1.305452    0.232017
      6  C        -1.826944   -1.203317   -0.088376
      7  H        -0.469911   -0.321975    1.347118
      8  H         0.201245   -0.348923   -1.609417
      9  H         2.232302    0.991394   -0.900637
     10  H         1.814987   -1.116982    0.921799
     11  H        -2.444308    1.412077   -0.159615
     12  H        -0.483944    1.402666   -0.788160
     13  H        -1.141995    2.026050    0.994067
     14  H        -2.253801   -0.967769   -1.070540
     15  H        -2.654469   -1.307276    0.620240
     16  H        -1.319220   -2.169545   -0.166821
     17  H         1.531202    1.216160    0.712073
   Point Group: c1    Number of degrees of freedom:    45


   Energy is   -272.204288388


 Attempting to Generate Delocalized Internal Coordinates
 GETINT wrote B to file, NVib is           45
 calling HSSCONV
 HCONV 3*NATOMS:           51
 wrote HINT to file
  writing hessian 

 45 Hessian modes will be used to form the next step
  Hessian Eigenvalues:
     0.004333    0.006345    0.008643    0.012296    0.026644    0.029265
     0.039091    0.039849    0.040842    0.050313    0.054738    0.056485
     0.057804    0.059765    0.066242    0.081275    0.091786    0.105033
     0.108601    0.113657    0.117692    0.139934    0.146037    0.151297
     0.157273    0.160000    0.160000    0.160000    0.160000    0.220440
     0.264735    0.273799    0.302299    0.319564    0.335677    0.339007
     0.340709    0.343075    0.343182    0.344983    0.346845    0.348662
     0.349893    0.416687    0.538232
**WARNING** Hessian does not have the Desired Local Structure

 Transition State Search - Taking P-RFO Step
 Searching for Lamda that Maximizes Along the Lowest mode
 Value Taken    Lamda =   0.00442882
 Searching for Lamda that Minimizes Along All other modes
 Value Taken    Lamda =  -0.00060702
 Calculated Step too Large.  Step scaled by  0.044193
 Step Taken.  Stepsize is  0.300000

                             Maximum     Tolerance    Cnvgd?
         Gradient           0.006342      0.000300      NO
         Displacement       0.111562      0.001200      NO
         Energy change     *********      0.000001      NO


 New Cartesian Coordinates Obtained by Inverse Iteration

 Displacement from previous Coordinates is:  0.397260
 ----------------------------------------------------
       Standard Nuclear Orientation (Angstroms)
    I     Atom         X            Y            Z
 ----------------------------------------------------
    1      C      -0.865346    -0.129855     0.340036
    2      C       0.241373     0.183616    -0.674942
    3      C       1.600266     0.539286    -0.138014
    4      O       2.343075    -0.600556     0.286605
    5      C      -1.402873     1.295542     0.248556
    6      C      -1.849232    -1.200529    -0.106976
    7      H      -0.469504    -0.367770     1.335954
    8      H       0.224507    -0.397267    -1.600072
    9      H       2.217755     1.005708    -0.907012
   10      H       1.831873    -1.066289     0.963209
   11      H      -2.430649     1.427626    -0.087490
   12      H      -0.510674     1.355047    -0.824568
   13      H      -1.049707     2.012887     0.986845
   14      H      -2.274236    -0.941951    -1.083885
   15      H      -2.676283    -1.298621     0.602700
   16      H      -1.361005    -2.175104    -0.201467
   17      H       1.497115     1.253489     0.693326
 ----------------------------------------------------
 Molecular Point Group                 C1    NOp =  1
 Largest Abelian Subgroup              C1    NOp =  1
 Nuclear Repulsion Energy =   247.9632727682 hartrees
 There are       25 alpha and       24 beta electrons
 Applying Cartesian multipole field
    Component          Value
    ---------          -----
     (2,0,0)        1.00000E-11
     (0,2,0)        2.00000E-11
     (0,0,2)       -3.00000E-11
 Nucleus-field energy     =     0.0000000061 hartrees
 Requested basis set is non-standard
 There are 138 shells and 314 basis functions
 A cutoff of  1.0D-11 yielded   9022 shell pairs
 There are     46438 function pairs (     55764 Cartesian)
 Smallest overlap matrix eigenvalue = 1.28E-05
 Guess MOs from SCF MO coefficient file
Reading MOs from coefficient file
Reading MOs from coefficient file
 An unrestricted hybrid HF-DFT SCF calculation will be
 performed using Pulay DIIS extrapolation
 Exchange:     0.5400 Hartree-Fock + 1.0000 M062X
 SCF converges when DIIS error is below 1.0E-08
Geometry optimization detected.  Setting ReadMinima to 0
Setting SaveMinima to 0
 ---------------------------------------
  Cycle       Energy         DIIS Error
 ---------------------------------------
    1    -272.2050513869      4.60E-04
    2    -272.2038612254      5.86E-05
    3    -272.2039673305      2.27E-05
    4    -272.2039760767      1.43E-05
    5    -272.2039794056      3.89E-06
    6    -272.2039797054      9.03E-07
    7    -272.2039797423      4.19E-07
    8    -272.2039797485      1.48E-07
    9    -272.2039797492      4.93E-08
   10    -272.2039797496      1.64E-08
   11    -272.2039797495      4.45E-09 Convergence criterion met
 ---------------------------------------
 <S^2> = 0.7608
 SCF time:  CPU 193.03 s  wall 237.89 s
 SCF   energy in the final basis set = -272.2039797495
 Total energy in the final basis set = -272.2039797495
 Analysis of SCF Wavefunction
 
 --------------------------------------------------------------
                    Orbital Energies (a.u.)
 --------------------------------------------------------------
 
 Alpha MOs
 -- Occupied --
-19.623 -10.586 -10.552 -10.549 -10.546 -10.533  -1.143  -0.937
 -0.824  -0.783  -0.710  -0.649  -0.590  -0.560  -0.523  -0.514
 -0.498  -0.465  -0.462  -0.429  -0.409  -0.385  -0.376  -0.357
 -0.225
 -- Virtual --
 -0.005   0.007   0.011   0.017   0.034   0.037   0.041   0.043
  0.049   0.067   0.072   0.082   0.087   0.097   0.103   0.116
  0.121   0.126   0.135   0.139   0.144   0.149   0.152   0.160
  0.166   0.169   0.176   0.181   0.183   0.190   0.193   0.211
  0.218   0.226   0.240   0.245   0.250   0.261   0.269   0.275
  0.282   0.299   0.315   0.328   0.336   0.348   0.355   0.363
  0.386   0.392   0.420   0.451   0.462   0.467   0.478   0.488
  0.516   0.529   0.538   0.547   0.558   0.587   0.589   0.597
  0.606   0.609   0.617   0.621   0.627   0.635   0.643   0.653
  0.660   0.664   0.678   0.710   0.715   0.726   0.741   0.745
  0.769   0.802   0.808   0.821   0.872   0.887   0.916   0.944
  0.955   0.969   0.985   1.012   1.015   1.037   1.046   1.074
  1.079   1.107   1.118   1.139   1.148   1.169   1.181   1.198
  1.213   1.226   1.243   1.260   1.275   1.282   1.307   1.311
  1.329   1.341   1.357   1.369   1.378   1.388   1.401   1.413
  1.422   1.440   1.444   1.458   1.479   1.484   1.494   1.504
  1.532   1.536   1.557   1.570   1.585   1.590   1.598   1.603
  1.628   1.654   1.668   1.679   1.701   1.749   1.774   1.802
  1.954   2.083   2.126   2.299   2.322   2.449   2.476   2.491
  2.514   2.546   2.602   2.638   2.658   2.697   2.723   2.750
  2.758   2.794   2.815   2.830   2.863   2.895   2.916   2.954
  2.973   2.981   2.993   3.019   3.048   3.064   3.078   3.104
  3.127   3.133   3.166   3.176   3.186   3.203   3.223   3.235
  3.263   3.283   3.306   3.320   3.336   3.359   3.389   3.402
  3.418   3.431   3.459   3.481   3.511   3.531   3.566   3.582
  3.595   3.608   3.623   3.658   3.662   3.704   3.716   3.728
  3.756   3.757   3.763   3.785   3.805   3.836   3.852   3.899
  3.930   3.939   3.962   3.996   3.999   4.046   4.073   4.079
  4.090   4.116   4.127   4.129   4.164   4.200   4.215   4.228
  4.239   4.250   4.270   4.276   4.305   4.337   4.346   4.389
  4.399   4.428   4.470   4.474   4.493   4.509   4.514   4.534
  4.565   4.590   4.628   4.639   4.769   4.795   4.824   4.877
  4.915   4.998   5.108   5.205   5.239   5.255   5.288   5.413
  5.455   5.460   5.510   5.522   5.548   5.563   5.575   5.611
  5.650   5.660   5.819   5.940   6.488   6.981   7.164   7.208
  7.220   7.517   7.646  24.229  24.275  24.353  24.441  24.495
 50.134
 
 Beta MOs
 -- Occupied --
-19.622 -10.586 -10.553 -10.543 -10.541 -10.533  -1.140  -0.925
 -0.818  -0.771  -0.698  -0.642  -0.587  -0.543  -0.516  -0.506
 -0.493  -0.462  -0.454  -0.422  -0.407  -0.376  -0.365  -0.350
 -- Virtual --
 -0.028  -0.003   0.009   0.013   0.024   0.037   0.041   0.045
  0.046   0.053   0.070   0.076   0.081   0.089   0.099   0.102
  0.121   0.122   0.128   0.137   0.140   0.142   0.149   0.151
  0.161   0.168   0.169   0.175   0.180   0.184   0.193   0.196
  0.214   0.219   0.227   0.242   0.243   0.251   0.261   0.269
  0.277   0.286   0.299   0.317   0.330   0.336   0.348   0.357
  0.365   0.390   0.395   0.420   0.452   0.467   0.470   0.481
  0.489   0.520   0.532   0.550   0.550   0.561   0.587   0.590
  0.598   0.607   0.611   0.618   0.626   0.629   0.640   0.645
  0.656   0.666   0.671   0.685   0.710   0.717   0.730   0.744
  0.746   0.775   0.804   0.814   0.823   0.873   0.888   0.917
  0.946   0.956   0.971   0.987   1.013   1.016   1.039   1.048
  1.075   1.081   1.109   1.120   1.140   1.148   1.173   1.184
  1.200   1.214   1.228   1.246   1.259   1.277   1.284   1.310
  1.313   1.333   1.342   1.360   1.372   1.380   1.395   1.403
  1.416   1.426   1.442   1.449   1.459   1.481   1.485   1.497
  1.510   1.534   1.537   1.559   1.576   1.590   1.594   1.602
  1.609   1.635   1.658   1.673   1.684   1.706   1.751   1.778
  1.806   1.956   2.087   2.128   2.300   2.323   2.454   2.480
  2.502   2.519   2.550   2.606   2.645   2.660   2.717   2.734
  2.762   2.763   2.803   2.821   2.840   2.879   2.908   2.921
  2.971   2.984   2.985   3.006   3.027   3.072   3.079   3.090
  3.120   3.144   3.156   3.174   3.187   3.201   3.215   3.235
  3.242   3.277   3.291   3.317   3.341   3.348   3.374   3.402
  3.415   3.432   3.447   3.472   3.497   3.523   3.553   3.572
  3.600   3.609   3.626   3.636   3.669   3.677   3.712   3.732
  3.736   3.762   3.766   3.779   3.795   3.821   3.839   3.859
  3.918   3.944   3.950   3.980   4.002   4.006   4.048   4.082
  4.083   4.097   4.121   4.135   4.139   4.176   4.213   4.219
  4.231   4.246   4.253   4.281   4.291   4.311   4.348   4.356
  4.396   4.409   4.440   4.481   4.490   4.500   4.519   4.524
  4.540   4.578   4.598   4.632   4.642   4.778   4.798   4.833
  4.892   4.935   5.010   5.128   5.211   5.242   5.260   5.299
  5.416   5.465   5.475   5.520   5.543   5.561   5.575   5.584
  5.612   5.653   5.664   5.821   5.941   6.487   6.983   7.165
  7.212   7.223   7.518   7.648  24.237  24.285  24.353  24.442
 24.499  50.133
 --------------------------------------------------------------
 
          Ground-State Mulliken Net Atomic Charges

     Atom                 Charge (a.u.)    Spin (a.u.)
  --------------------------------------------------------
      1 C                     0.361905      -0.119970
      2 C                    -0.291545       0.581391
      3 C                    -0.439925      -0.002408
      4 O                    -0.269987       0.021799
      5 C                    -0.605495       0.618305
      6 C                    -0.554260       0.030081
      7 H                     0.166635       0.003854
      8 H                     0.199527      -0.021565
      9 H                     0.145395       0.002652
     10 H                     0.237538       0.001090
     11 H                     0.164284      -0.013643
     12 H                     0.140833      -0.072221
     13 H                     0.144711      -0.022057
     14 H                     0.139305      -0.001120
     15 H                     0.152528      -0.002868
     16 H                     0.140645      -0.003066
     17 H                     0.167907      -0.000255
  --------------------------------------------------------
  Sum of atomic charges =     0.000000
  Sum of spin   charges =     1.000000

 -----------------------------------------------------------------
                    Cartesian Multipole Moments
 -----------------------------------------------------------------
    Charge (ESU x 10^10)
                 0.0000
    Dipole Moment (Debye)
         X      -1.6966      Y       0.1664      Z       0.6510
       Tot       1.8248
    Quadrupole Moments (Debye-Ang)
        XX     -46.3663     XY       2.4025     YY     -39.7851
        XZ       0.5436     YZ      -0.7763     ZZ     -38.5522
    Octapole Moments (Debye-Ang^2)
       XXX     -13.2279    XXY       5.4685    XYY       5.1537
       YYY      -6.7852    XXZ      -2.2761    XYZ      -2.5030
       YYZ       4.4986    XZZ       6.6784    YZZ      -3.6725
       ZZZ       2.5872
    Hexadecapole Moments (Debye-Ang^3)
      XXXX    -711.8181   XXXY      10.2324   XXYY    -153.2668
      XYYY      -9.0782   YYYY    -257.7585   XXXZ      -6.0462
      XXYZ      -9.3555   XYYZ       3.0425   YYYZ      -0.3061
      XXZZ    -123.8371   XYZZ      -3.1787   YYZZ     -59.5581
      XZZZ       3.5135   YZZZ      -2.1106   ZZZZ    -109.8887
 -----------------------------------------------------------------
 Calculating analytic gradient of the SCF energy
 Gradient of Coulomb and Exchange Energy
            1           2           3           4           5           6
    1   3.0474240  -0.0479920  -3.6489125 -10.5102930   3.5424609   3.2514426
    2  -0.6334798  -0.5547764  -2.3334803   4.5202319  -3.6900596   3.9642522
    3  -1.2951251   3.5691540   0.3516062  -0.2161729  -0.9100347   0.1966190
            7           8           9          10          11          12
    1  -1.2514279  -0.1830732  -2.8595760   1.3351370   4.1802220   0.2453480
    2   0.9033845   2.2695344  -2.3024879   2.7537266  -1.1023651  -1.9601736
    3  -4.3420344   4.2846866   3.4043790  -3.2794823   1.3042916   1.5157983
           13          14          15          16          17
    1  -1.0250442   2.0144141   3.2623907  -1.1523602  -0.2001603
    2  -3.3765185  -0.2565531   0.7853242   3.9531024  -2.9396618
    3  -2.8820090   3.3745279  -2.3392534   0.4620048  -3.1989558
 Gradient of SCF Energy
            1           2           3           4           5           6
    1  -0.0042196   0.0002085  -0.0008044   0.0061977   0.0029139   0.0007494
    2  -0.0000209   0.0046867  -0.0007544   0.0030045  -0.0005097   0.0004797
    3  -0.0042029   0.0033135  -0.0000963  -0.0052472   0.0028251   0.0008862
            7           8           9          10          11          12
    1   0.0012741  -0.0001879   0.0019509  -0.0039148  -0.0022359  -0.0004000
    2   0.0000759  -0.0019952   0.0002191  -0.0037088  -0.0000878  -0.0016265
    3   0.0028201  -0.0024112  -0.0013411   0.0052901  -0.0011096  -0.0041243
           13          14          15          16          17
    1   0.0010072  -0.0014622  -0.0022590   0.0010102   0.0001718
    2   0.0015246   0.0005733  -0.0005851  -0.0027042   0.0014288
    3   0.0020583  -0.0026304   0.0020123  -0.0003960   0.0023534
 Max gradient component =       6.198E-03
 RMS gradient           =       2.480E-03
 Gradient time:  CPU 58.98 s  wall 70.28 s
 Geometry Optimization Parameters
   NAtoms,    NIC,     NZ,  NCons,   NDum,   NFix, NCnnct, MaxDiis
       17     128       0       0       0       0       0       0

 Cartesian Hessian Update
 Hessian Updated using Powell/Murtagh-Sargent Update
  Mixing factors:     0.000254 Powell
                      0.999746 Murtagh-Sargent


** GEOMETRY OPTIMIZATION IN DELOCALIZED INTERNAL COORDINATES **
   Searching for a Transition State

   Optimization Cycle:   2

                       Coordinates (Angstroms)
     ATOM              X           Y           Z
      1  C        -0.865346   -0.129855    0.340036
      2  C         0.241373    0.183616   -0.674942
      3  C         1.600266    0.539286   -0.138014
      4  O         2.343075   -0.600556    0.286605
      5  C        -1.402873    1.295542    0.248556
      6  C        -1.849232   -1.200529   -0.106976
      7  H        -0.469504   -0.367770    1.335954
      8  H         0.224507   -0.397267   -1.600072
      9  H         2.217755    1.005708   -0.907012
     10  H         1.831873   -1.066289    0.963209
     11  H        -2.430649    1.427626   -0.087490
     12  H        -0.510674    1.355047   -0.824568
     13  H        -1.049707    2.012887    0.986845
     14  H        -2.274236   -0.941951   -1.083885
     15  H        -2.676283   -1.298621    0.602700
     16  H        -1.361005   -2.175104   -0.201467
     17  H         1.497115    1.253489    0.693326
   Point Group: c1    Number of degrees of freedom:    45


   Energy is   -272.203979749

 GETINT wrote B to file, NVib is           45
 Hessian Updated using Powell/Murtagh-Sargent Update
  Mixing factors:     0.987760 Powell
                      0.012240 Murtagh-Sargent

 43 Hessian modes will be used to form the next step
  Hessian Eigenvalues:
     0.001685    0.006352    0.008648    0.012296    0.026652    0.029265
     0.039102    0.040229    0.041046    0.050312    0.054738    0.056485
     0.057804    0.059765    0.066246    0.081279    0.091788    0.105011
     0.108600    0.113617    0.117690    0.139934    0.146037    0.151244
     0.157271    0.159995    0.160000    0.220441    0.264713    0.273794
     0.302251    0.319553    0.335676    0.339000    0.340709    0.343074
     0.343182    0.344983    0.346845    0.348661    0.349892    0.416676
     0.538232
**WARNING** Hessian does not have the Desired Local Structure

 Transition State Search - Taking P-RFO Step
 Searching for Lamda that Maximizes Along the Lowest mode
 Value Taken    Lamda =   0.00216871
 Searching for Lamda that Minimizes Along All other modes
 Value Taken    Lamda =  -0.00077486
 Calculated Step too Large.  Step scaled by  0.141484
 Step Taken.  Stepsize is  0.300000

                             Maximum     Tolerance    Cnvgd?
         Gradient           0.006095      0.000300      NO
         Displacement       0.120398      0.001200      NO
         Energy change      0.000309      0.000001      NO


 New Cartesian Coordinates Obtained by Inverse Iteration

 Displacement from previous Coordinates is:  0.421943
 ----------------------------------------------------
       Standard Nuclear Orientation (Angstroms)
    I     Atom         X            Y            Z
 ----------------------------------------------------
    1      C      -0.860106    -0.154342     0.341297
    2      C       0.241955     0.152633    -0.678757
    3      C       1.586051     0.556419    -0.142431
    4      O       2.349470    -0.551967     0.324334
    5      C      -1.372512     1.280891     0.265430
    6      C      -1.866576    -1.191420    -0.127411
    7      H      -0.469784    -0.422582     1.331516
    8      H       0.244979    -0.451780    -1.588257
    9      H       2.198424     1.014370    -0.919870
   10      H       1.842758    -1.006607     1.010269
   11      H      -2.414285     1.436747    -0.011042
   12      H      -0.533194     1.307340    -0.850920
   13      H      -0.957720     1.994679     0.973437
   14      H      -2.286585    -0.903007    -1.097505
   15      H      -2.694121    -1.285718     0.581019
   16      H      -1.399377    -2.173178    -0.243078
   17      H       1.457078     1.292781     0.664773
 ----------------------------------------------------
 Molecular Point Group                 C1    NOp =  1
 Largest Abelian Subgroup              C1    NOp =  1
 Nuclear Repulsion Energy =   248.4365518406 hartrees
 There are       25 alpha and       24 beta electrons
 Applying Cartesian multipole field
    Component          Value
    ---------          -----
     (2,0,0)        1.00000E-11
     (0,2,0)        2.00000E-11
     (0,0,2)       -3.00000E-11
 Nucleus-field energy     =     0.0000000060 hartrees
 Requested basis set is non-standard
 There are 138 shells and 314 basis functions
 A cutoff of  1.0D-11 yielded   9027 shell pairs
 There are     46457 function pairs (     55784 Cartesian)
 Smallest overlap matrix eigenvalue = 1.24E-05
 Guess MOs from SCF MO coefficient file
Reading MOs from coefficient file
Reading MOs from coefficient file
 An unrestricted hybrid HF-DFT SCF calculation will be
 performed using Pulay DIIS extrapolation
 Exchange:     0.5400 Hartree-Fock + 1.0000 M062X
 SCF converges when DIIS error is below 1.0E-08
Geometry optimization detected.  Setting ReadMinima to 0
Setting SaveMinima to 0
 ---------------------------------------
  Cycle       Energy         DIIS Error
 ---------------------------------------
    1    -272.2058565887      5.02E-04
    2    -272.2035510834      6.33E-05
    3    -272.2036752992      2.48E-05
    4    -272.2036854390      1.61E-05
    5    -272.2036893462      4.38E-06
    6    -272.2036896983      9.78E-07
    7    -272.2036897447      4.62E-07
    8    -272.2036897519      1.64E-07
    9    -272.2036897528      5.24E-08
   10    -272.2036897530      1.92E-08
   11    -272.2036897531      6.20E-09 Convergence criterion met
 ---------------------------------------
 <S^2> = 0.7608
 SCF time:  CPU 194.51 s  wall 250.98 s
 SCF   energy in the final basis set = -272.2036897531
 Total energy in the final basis set = -272.2036897531
 Analysis of SCF Wavefunction
 
 --------------------------------------------------------------
                    Orbital Energies (a.u.)
 --------------------------------------------------------------
 
 Alpha MOs
 -- Occupied --
-19.623 -10.586 -10.552 -10.549 -10.547 -10.533  -1.144  -0.939
 -0.824  -0.782  -0.711  -0.649  -0.590  -0.562  -0.523  -0.514
 -0.499  -0.465  -0.461  -0.429  -0.409  -0.386  -0.376  -0.356
 -0.226
 -- Virtual --
 -0.005   0.007   0.011   0.017   0.034   0.037   0.041   0.044
  0.048   0.067   0.072   0.083   0.088   0.096   0.104   0.116
  0.122   0.125   0.135   0.139   0.144   0.149   0.153   0.160
  0.167   0.168   0.175   0.181   0.184   0.189   0.194   0.214
  0.219   0.227   0.240   0.245   0.249   0.262   0.267   0.276
  0.282   0.297   0.313   0.328   0.337   0.348   0.355   0.362
  0.384   0.393   0.420   0.450   0.463   0.467   0.481   0.488
  0.516   0.532   0.538   0.551   0.558   0.587   0.589   0.597
  0.606   0.606   0.618   0.620   0.626   0.637   0.642   0.653
  0.660   0.664   0.678   0.711   0.716   0.731   0.742   0.748
  0.770   0.799   0.809   0.823   0.870   0.883   0.916   0.939
  0.956   0.972   0.983   1.010   1.018   1.041   1.052   1.075
  1.078   1.104   1.117   1.140   1.150   1.165   1.180   1.203
  1.214   1.227   1.243   1.261   1.275   1.287   1.306   1.308
  1.332   1.340   1.355   1.367   1.380   1.392   1.402   1.409
  1.428   1.442   1.444   1.463   1.477   1.487   1.494   1.507
  1.533   1.535   1.564   1.574   1.589   1.590   1.596   1.603
  1.627   1.656   1.666   1.684   1.709   1.750   1.767   1.808
  1.951   2.085   2.128   2.301   2.325   2.451   2.479   2.499
  2.519   2.544   2.597   2.632   2.661   2.700   2.727   2.753
  2.759   2.797   2.815   2.835   2.868   2.895   2.915   2.948
  2.970   2.980   2.986   3.020   3.046   3.065   3.072   3.107
  3.131   3.135   3.168   3.182   3.191   3.202   3.221   3.235
  3.266   3.296   3.307   3.320   3.341   3.361   3.393   3.407
  3.419   3.437   3.464   3.487   3.512   3.530   3.564   3.580
  3.595   3.610   3.624   3.655   3.662   3.712   3.721   3.733
  3.754   3.757   3.766   3.782   3.807   3.831   3.859   3.902
  3.924   3.949   3.965   3.999   4.001   4.049   4.072   4.080
  4.090   4.116   4.128   4.137   4.166   4.197   4.216   4.229
  4.241   4.260   4.273   4.284   4.311   4.340   4.343   4.391
  4.399   4.426   4.466   4.475   4.497   4.510   4.518   4.541
  4.582   4.590   4.637   4.642   4.767   4.796   4.837   4.884
  4.918   4.994   5.119   5.206   5.240   5.254   5.297   5.414
  5.455   5.466   5.515   5.527   5.554   5.566   5.577   5.613
  5.649   5.661   5.821   5.943   6.491   6.981   7.170   7.211
  7.221   7.518   7.647  24.232  24.276  24.356  24.447  24.502
 50.136
 
 Beta MOs
 -- Occupied --
-19.622 -10.586 -10.553 -10.543 -10.541 -10.533  -1.140  -0.926
 -0.818  -0.771  -0.698  -0.642  -0.587  -0.544  -0.517  -0.506
 -0.495  -0.462  -0.453  -0.422  -0.407  -0.376  -0.365  -0.350
 -- Virtual --
 -0.029  -0.003   0.009   0.013   0.024   0.037   0.041   0.045
  0.047   0.052   0.071   0.076   0.082   0.090   0.098   0.103
  0.121   0.124   0.127   0.137   0.140   0.143   0.150   0.152
  0.161   0.166   0.169   0.176   0.181   0.184   0.192   0.197
  0.217   0.219   0.229   0.241   0.243   0.250   0.262   0.268
  0.278   0.286   0.298   0.316   0.331   0.337   0.349   0.358
  0.363   0.388   0.396   0.420   0.451   0.468   0.470   0.484
  0.488   0.520   0.536   0.549   0.554   0.561   0.587   0.589
  0.598   0.607   0.608   0.619   0.624   0.629   0.641   0.645
  0.658   0.667   0.670   0.685   0.711   0.717   0.734   0.746
  0.749   0.776   0.801   0.817   0.824   0.871   0.884   0.917
  0.940   0.957   0.974   0.985   1.010   1.020   1.042   1.054
  1.077   1.080   1.105   1.119   1.141   1.149   1.169   1.183
  1.205   1.217   1.228   1.246   1.260   1.276   1.289   1.308
  1.311   1.335   1.341   1.358   1.369   1.381   1.400   1.404
  1.412   1.431   1.445   1.448   1.464   1.478   1.489   1.497
  1.511   1.534   1.537   1.565   1.580   1.592   1.596   1.601
  1.609   1.635   1.659   1.672   1.688   1.713   1.752   1.772
  1.811   1.953   2.088   2.130   2.302   2.326   2.454   2.483
  2.511   2.523   2.549   2.601   2.639   2.662   2.719   2.738
  2.764   2.764   2.807   2.820   2.846   2.881   2.910   2.918
  2.968   2.978   2.984   3.001   3.027   3.069   3.077   3.084
  3.122   3.146   3.158   3.177   3.193   3.204   3.217   3.233
  3.244   3.279   3.305   3.318   3.338   3.354   3.376   3.404
  3.419   3.432   3.456   3.475   3.502   3.525   3.551   3.571
  3.598   3.610   3.625   3.635   3.667   3.677   3.720   3.736
  3.741   3.760   3.768   3.776   3.797   3.820   3.836   3.865
  3.921   3.939   3.959   3.979   4.004   4.010   4.050   4.081
  4.085   4.100   4.122   4.137   4.146   4.176   4.207   4.219
  4.232   4.248   4.262   4.286   4.295   4.317   4.351   4.354
  4.399   4.408   4.437   4.479   4.489   4.503   4.521   4.530
  4.546   4.594   4.597   4.638   4.648   4.777   4.803   4.842
  4.898   4.937   5.007   5.138   5.213   5.242   5.259   5.306
  5.416   5.469   5.474   5.525   5.545   5.566   5.577   5.585
  5.614   5.653   5.663   5.823   5.943   6.490   6.982   7.171
  7.214   7.223   7.519   7.649  24.240  24.286  24.356  24.449
 24.505  50.135
 --------------------------------------------------------------
 
          Ground-State Mulliken Net Atomic Charges

     Atom                 Charge (a.u.)    Spin (a.u.)
  --------------------------------------------------------
      1 C                     0.404280      -0.128865
      2 C                    -0.316089       0.590195
      3 C                    -0.440038      -0.004259
      4 O                    -0.272171       0.021456
      5 C                    -0.618087       0.620451
      6 C                    -0.561742       0.031412
      7 H                     0.164033       0.004033
      8 H                     0.199411      -0.021456
      9 H                     0.145411       0.003071
     10 H                     0.236858       0.001448
     11 H                     0.168367      -0.012988
     12 H                     0.143720      -0.074118
     13 H                     0.140827      -0.022656
     14 H                     0.140741      -0.001194
     15 H                     0.152824      -0.002854
     16 H                     0.142424      -0.003107
     17 H                     0.169228      -0.000568
  --------------------------------------------------------
  Sum of atomic charges =     0.000000
  Sum of spin   charges =     1.000000

 -----------------------------------------------------------------
                    Cartesian Multipole Moments
 -----------------------------------------------------------------
    Charge (ESU x 10^10)
                 0.0000
    Dipole Moment (Debye)
         X      -1.7057      Y       0.1522      Z       0.6252
       Tot       1.8230
    Quadrupole Moments (Debye-Ang)
        XX     -46.4162     XY       2.3027     YY     -39.7474
        XZ       0.4028     YZ      -0.7427     ZZ     -38.5406
    Octapole Moments (Debye-Ang^2)
       XXX     -13.9328    XXY       5.0419    XYY       5.1710
       YYY      -6.5557    XXZ      -2.5196    XYZ      -2.4397
       YYZ       4.1113    XZZ       6.9557    YZZ      -3.9235
       ZZZ       2.3779
    Hexadecapole Moments (Debye-Ang^3)
      XXXX    -710.0691   XXXY       4.3053   XXYY    -151.8133
      XYYY     -12.4655   YYYY    -253.4490   XXXZ      -9.6949
      XXYZ      -9.5566   XYYZ       2.2685   YYYZ      -1.0361
      XXZZ    -123.7551   XYZZ      -4.6122   YYZZ     -59.1433
      XZZZ       1.9213   YZZZ      -3.6109   ZZZZ    -111.6782
 -----------------------------------------------------------------
 Calculating analytic gradient of the SCF energy
 Gradient of Coulomb and Exchange Energy
            1           2           3           4           5           6
    1   2.9766248  -0.1649528  -3.5891680 -10.6164576   3.6411829   3.3583570
    2  -0.6027282  -0.3723541  -2.2882368   4.3066043  -3.7022698   3.9500418
    3  -1.3953654   3.7396989   0.4478193  -0.4462148  -0.9797773   0.2475124
            7           8           9          10          11          12
    1  -1.2148702  -0.2453993  -2.8310453   1.3047321   4.2116168   0.3346597
    2   1.0268733   2.3607919  -2.2666574   2.6875745  -1.1757555  -1.8444277
    3  -4.2872782   4.2307676   3.4622571  -3.3628972   1.0876786   1.5865027
           13          14          15          16          17
    1  -1.2622730   2.0166274   3.2772216  -1.0819456  -0.1149105
    2  -3.4140814  -0.3471419   0.7644896   3.9642270  -3.0469496
    3  -2.8058459   3.3664032  -2.3266492   0.5490331  -3.1136452
 Gradient of SCF Energy
            1           2           3           4           5           6
    1  -0.0044720   0.0008393  -0.0007131   0.0052401   0.0035921   0.0010281
    2  -0.0006571   0.0050628  -0.0008930   0.0025659  -0.0002737   0.0007784
    3  -0.0041435   0.0037716  -0.0001957  -0.0045749   0.0028741   0.0009009
            7           8           9          10          11          12
    1   0.0010200  -0.0000796   0.0015544  -0.0034021  -0.0018843  -0.0013974
    2  -0.0003151  -0.0016745   0.0002399  -0.0030761   0.0001550  -0.0025764
    3   0.0026049  -0.0021461  -0.0011389   0.0045973  -0.0010213  -0.0049264
           13          14          15          16          17
    1   0.0011180  -0.0012935  -0.0018335   0.0009162  -0.0002327
    2   0.0015001   0.0004835  -0.0004039  -0.0022787   0.0013631
    3   0.0021976  -0.0023237   0.0017451  -0.0003336   0.0021125
 Max gradient component =       5.240E-03
 RMS gradient           =       2.391E-03
 Gradient time:  CPU 62.00 s  wall 81.20 s
 Geometry Optimization Parameters
   NAtoms,    NIC,     NZ,  NCons,   NDum,   NFix, NCnnct, MaxDiis
       17     128       0       0       0       0       0       0

 Cartesian Hessian Update
 Hessian Updated using Powell/Murtagh-Sargent Update
  Mixing factors:     0.972841 Powell
                      0.027159 Murtagh-Sargent


** GEOMETRY OPTIMIZATION IN DELOCALIZED INTERNAL COORDINATES **
   Searching for a Transition State

   Optimization Cycle:   3

                       Coordinates (Angstroms)
     ATOM              X           Y           Z
      1  C        -0.860106   -0.154342    0.341297
      2  C         0.241955    0.152633   -0.678757
      3  C         1.586051    0.556419   -0.142431
      4  O         2.349470   -0.551967    0.324334
      5  C        -1.372512    1.280891    0.265430
      6  C        -1.866576   -1.191420   -0.127411
      7  H        -0.469784   -0.422582    1.331516
      8  H         0.244979   -0.451780   -1.588257
      9  H         2.198424    1.014370   -0.919870
     10  H         1.842758   -1.006607    1.010269
     11  H        -2.414285    1.436747   -0.011042
     12  H        -0.533194    1.307340   -0.850920
     13  H        -0.957720    1.994679    0.973437
     14  H        -2.286585   -0.903007   -1.097505
     15  H        -2.694121   -1.285718    0.581019
     16  H        -1.399377   -2.173178   -0.243078
     17  H         1.457078    1.292781    0.664773
   Point Group: c1    Number of degrees of freedom:    45


   Energy is   -272.203689753

 GETINT wrote B to file, NVib is           45
 Hessian Updated using Powell/Murtagh-Sargent Update
  Mixing factors:     0.995291 Powell
                      0.004709 Murtagh-Sargent

 44 Hessian modes will be used to form the next step
  Hessian Eigenvalues:
     0.001791    0.006365    0.008648    0.012298    0.026659    0.029269
     0.039103    0.040300    0.041183    0.050332    0.054749    0.056488
     0.057804    0.059765    0.066313    0.081284    0.091798    0.105010
     0.108607    0.113620    0.117731    0.139944    0.146089    0.151244
     0.157339    0.160000    0.160000    0.160023    0.220449    0.264713
     0.273794    0.302352    0.319634    0.335676    0.339001    0.340708
     0.343077    0.343182    0.344982    0.346846    0.348662    0.349919
     0.416679    0.538232
**WARNING** Hessian does not have the Desired Local Structure

 Transition State Search - Taking P-RFO Step
 Searching for Lamda that Maximizes Along the Lowest mode
 Value Taken    Lamda =   0.00252080
 Searching for Lamda that Minimizes Along All other modes
 Value Taken    Lamda =  -0.00073713
 Calculated Step too Large.  Step scaled by  0.161150
 Step Taken.  Stepsize is  0.300000

                             Maximum     Tolerance    Cnvgd?
         Gradient           0.005258      0.000300      NO
         Displacement       0.130918      0.001200      NO
         Energy change      0.000290      0.000001      NO


 New Cartesian Coordinates Obtained by Inverse Iteration

 Displacement from previous Coordinates is:  0.439029
 ----------------------------------------------------
       Standard Nuclear Orientation (Angstroms)
    I     Atom         X            Y            Z
 ----------------------------------------------------
    1      C      -0.854733    -0.179623     0.345833
    2      C       0.242634     0.119971    -0.679826
    3      C       1.573383     0.572385    -0.149502
    4      O       2.356481    -0.500924     0.362724
    5      C      -1.344993     1.263607     0.283529
    6      C      -1.884443    -1.180117    -0.149590
    7      H      -0.473686    -0.479781     1.329907
    8      H       0.264946    -0.508720    -1.571758
    9      H       2.180860     1.014899    -0.939086
   10      H       1.857084    -0.938225     1.063650
   11      H      -2.397649     1.440190     0.068650
   12      H      -0.554610     1.260792    -0.867872
   13      H      -0.872031     1.973962     0.955135
   14      H      -2.297779    -0.855140    -1.110215
   15      H      -2.713486    -1.274775     0.556083
   16      H      -1.439917    -2.167945    -0.293199
   17      H       1.424392     1.334704     0.628341
 ----------------------------------------------------
 Molecular Point Group                 C1    NOp =  1
 Largest Abelian Subgroup              C1    NOp =  1
 Nuclear Repulsion Energy =   248.8428279378 hartrees
 There are       25 alpha and       24 beta electrons
 Applying Cartesian multipole field
    Component          Value
    ---------          -----
     (2,0,0)        1.00000E-11
     (0,2,0)        2.00000E-11
     (0,0,2)       -3.00000E-11
 Nucleus-field energy     =     0.0000000059 hartrees
 Requested basis set is non-standard
 There are 138 shells and 314 basis functions
 A cutoff of  1.0D-11 yielded   9037 shell pairs
 There are     46453 function pairs (     55752 Cartesian)
 Smallest overlap matrix eigenvalue = 1.21E-05
 Guess MOs from SCF MO coefficient file
Reading MOs from coefficient file
Reading MOs from coefficient file
 An unrestricted hybrid HF-DFT SCF calculation will be
 performed using Pulay DIIS extrapolation
 Exchange:     0.5400 Hartree-Fock + 1.0000 M062X
 SCF converges when DIIS error is below 1.0E-08
Geometry optimization detected.  Setting ReadMinima to 0
Setting SaveMinima to 0
 ---------------------------------------
  Cycle       Energy         DIIS Error
 ---------------------------------------
    1    -272.2049423081      5.33E-04
    2    -272.2031229653      6.80E-05
    3    -272.2032594191      3.03E-05
    4    -272.2032721095      1.91E-05
    5    -272.2032772674      4.77E-06
    6    -272.2032776852      1.09E-06
    7    -272.2032777434      5.16E-07
    8    -272.2032777527      1.81E-07
    9    -272.2032777541      6.15E-08
   10    -272.2032777544      2.47E-08
   11    -272.2032777546      8.90E-09 Convergence criterion met
 ---------------------------------------
 <S^2> = 0.7608
 SCF time:  CPU 199.60 s  wall 291.80 s
 SCF   energy in the final basis set = -272.2032777546
 Total energy in the final basis set = -272.2032777546
 Analysis of SCF Wavefunction
 
 --------------------------------------------------------------
                    Orbital Energies (a.u.)
 --------------------------------------------------------------
 
 Alpha MOs
 -- Occupied --
-19.623 -10.586 -10.552 -10.549 -10.547 -10.532  -1.144  -0.940
 -0.824  -0.782  -0.711  -0.649  -0.591  -0.563  -0.524  -0.513
 -0.501  -0.464  -0.459  -0.428  -0.410  -0.386  -0.376  -0.356
 -0.227
 -- Virtual --
 -0.005   0.007   0.011   0.017   0.034   0.037   0.042   0.045
  0.048   0.067   0.073   0.084   0.089   0.095   0.105   0.116
  0.122   0.125   0.135   0.139   0.144   0.149   0.155   0.160
  0.167   0.168   0.174   0.181   0.184   0.189   0.195   0.216
  0.219   0.228   0.239   0.246   0.249   0.262   0.266   0.278
  0.282   0.295   0.312   0.329   0.338   0.349   0.356   0.360
  0.382   0.394   0.421   0.450   0.462   0.469   0.483   0.488
  0.517   0.533   0.539   0.555   0.559   0.586   0.590   0.597
  0.603   0.606   0.617   0.619   0.627   0.638   0.641   0.651
  0.663   0.665   0.679   0.711   0.719   0.735   0.741   0.752
  0.772   0.797   0.809   0.826   0.867   0.880   0.916   0.933
  0.958   0.973   0.982   1.004   1.022   1.046   1.055   1.074
  1.079   1.099   1.119   1.141   1.154   1.159   1.180   1.209
  1.217   1.228   1.241   1.262   1.274   1.289   1.305   1.306
  1.335   1.339   1.353   1.361   1.382   1.400   1.403   1.406
  1.430   1.441   1.447   1.466   1.476   1.489   1.494   1.510
  1.530   1.539   1.573   1.579   1.586   1.591   1.600   1.604
  1.628   1.655   1.664   1.687   1.720   1.748   1.763   1.813
  1.949   2.087   2.129   2.302   2.327   2.449   2.484   2.510
  2.523   2.543   2.592   2.628   2.662   2.704   2.729   2.754
  2.759   2.797   2.814   2.840   2.871   2.894   2.913   2.942
  2.971   2.980   2.982   3.020   3.042   3.062   3.067   3.109
  3.130   3.140   3.169   3.185   3.194   3.201   3.222   3.236
  3.267   3.304   3.308   3.323   3.348   3.371   3.396   3.411
  3.419   3.447   3.469   3.492   3.517   3.531   3.561   3.575
  3.595   3.609   3.622   3.651   3.663   3.718   3.724   3.735
  3.754   3.757   3.774   3.780   3.810   3.825   3.867   3.900
  3.918   3.955   3.966   4.003   4.005   4.054   4.069   4.079
  4.087   4.116   4.131   4.143   4.169   4.196   4.218   4.226
  4.240   4.269   4.275   4.297   4.320   4.339   4.346   4.394
  4.397   4.426   4.461   4.473   4.501   4.511   4.521   4.551
  4.588   4.600   4.647   4.648   4.767   4.792   4.854   4.888
  4.918   4.990   5.130   5.208   5.240   5.253   5.309   5.414
  5.455   5.468   5.519   5.534   5.557   5.574   5.579   5.615
  5.646   5.664   5.823   5.945   6.493   6.980   7.175   7.213
  7.221   7.519   7.647  24.234  24.278  24.359  24.452  24.506
 50.138
 
 Beta MOs
 -- Occupied --
-19.622 -10.586 -10.553 -10.544 -10.542 -10.532  -1.141  -0.927
 -0.819  -0.770  -0.699  -0.642  -0.588  -0.546  -0.518  -0.505
 -0.496  -0.461  -0.452  -0.421  -0.407  -0.377  -0.365  -0.350
 -- Virtual --
 -0.030  -0.003   0.009   0.013   0.024   0.037   0.040   0.045
  0.048   0.052   0.071   0.076   0.083   0.090   0.097   0.103
  0.121   0.125   0.126   0.136   0.140   0.143   0.150   0.153
  0.161   0.165   0.169   0.176   0.181   0.184   0.191   0.197
  0.219   0.220   0.229   0.240   0.244   0.250   0.262   0.267
  0.279   0.286   0.297   0.315   0.330   0.339   0.349   0.358
  0.362   0.386   0.398   0.421   0.450   0.467   0.472   0.484
  0.490   0.520   0.538   0.549   0.557   0.563   0.586   0.591
  0.598   0.604   0.608   0.619   0.622   0.630   0.641   0.645
  0.660   0.667   0.670   0.684   0.711   0.720   0.738   0.745
  0.752   0.777   0.798   0.817   0.826   0.869   0.881   0.916
  0.934   0.960   0.975   0.984   1.005   1.023   1.047   1.057
  1.077   1.081   1.101   1.120   1.142   1.152   1.163   1.182
  1.210   1.220   1.229   1.244   1.262   1.276   1.291   1.308
  1.309   1.338   1.340   1.356   1.364   1.383   1.404   1.407
  1.410   1.432   1.447   1.448   1.467   1.478   1.492   1.496
  1.513   1.530   1.542   1.575   1.584   1.589   1.596   1.605
  1.611   1.636   1.660   1.669   1.691   1.725   1.750   1.768
  1.816   1.951   2.090   2.131   2.303   2.329   2.451   2.487
  2.522   2.528   2.547   2.596   2.635   2.663   2.723   2.740
  2.762   2.767   2.808   2.819   2.853   2.881   2.911   2.916
  2.963   2.979   2.984   2.999   3.027   3.063   3.074   3.079
  3.124   3.145   3.162   3.179   3.195   3.204   3.220   3.235
  3.245   3.279   3.314   3.320   3.338   3.362   3.387   3.405
  3.424   3.430   3.468   3.478   3.506   3.531   3.550   3.571
  3.592   3.610   3.621   3.636   3.665   3.678   3.726   3.739
  3.745   3.759   3.770   3.781   3.799   3.816   3.837   3.872
  3.916   3.938   3.968   3.974   4.009   4.014   4.054   4.077
  4.085   4.097   4.124   4.140   4.153   4.179   4.203   4.220
  4.232   4.247   4.272   4.288   4.306   4.326   4.348   4.362
  4.402   4.406   4.435   4.475   4.489   4.506   4.521   4.535
  4.555   4.595   4.610   4.646   4.658   4.778   4.802   4.856
  4.903   4.937   5.003   5.148   5.215   5.242   5.257   5.318
  5.416   5.470   5.477   5.528   5.548   5.570   5.580   5.594
  5.616   5.650   5.665   5.825   5.946   6.492   6.982   7.176
  7.216   7.224   7.521   7.649  24.242  24.288  24.359  24.454
 24.509  50.137
 --------------------------------------------------------------
 
          Ground-State Mulliken Net Atomic Charges

     Atom                 Charge (a.u.)    Spin (a.u.)
  --------------------------------------------------------
      1 C                     0.442073      -0.136896
      2 C                    -0.331826       0.600579
      3 C                    -0.446303      -0.005834
      4 O                    -0.274729       0.021353
      5 C                    -0.628091       0.620530
      6 C                    -0.568748       0.032710
      7 H                     0.162460       0.003950
      8 H                     0.200059      -0.022016
      9 H                     0.145948       0.003249
     10 H                     0.236369       0.001814
     11 H                     0.171868      -0.012382
     12 H                     0.143431      -0.076036
     13 H                     0.137074      -0.022901
     14 H                     0.142259      -0.001353
     15 H                     0.152814      -0.002778
     16 H                     0.143671      -0.003093
     17 H                     0.171672      -0.000897
  --------------------------------------------------------
  Sum of atomic charges =     0.000000
  Sum of spin   charges =     1.000000

 -----------------------------------------------------------------
                    Cartesian Multipole Moments
 -----------------------------------------------------------------
    Charge (ESU x 10^10)
                 0.0000
    Dipole Moment (Debye)
         X      -1.7088      Y       0.1465      Z       0.6095
       Tot       1.8202
    Quadrupole Moments (Debye-Ang)
        XX     -46.4471     XY       2.2010     YY     -39.7323
        XZ       0.2585     YZ      -0.6945     ZZ     -38.5077
    Octapole Moments (Debye-Ang^2)
       XXX     -14.5912    XXY       4.6134    XYY       5.1328
       YYY      -6.2369    XXZ      -2.6921    XYZ      -2.3983
       YYZ       3.6844    XZZ       7.2929    YZZ      -4.1747
       ZZZ       2.2145
    Hexadecapole Moments (Debye-Ang^3)
      XXXX    -709.4050   XXXY      -1.6927   XXYY    -150.5600
      XYYY     -15.7944   YYYY    -248.7360   XXXZ     -13.3809
      XXYZ      -9.7172   XYYZ       1.4069   YYYZ      -1.7613
      XXZZ    -123.6634   XYZZ      -6.1270   YYZZ     -58.7278
      XZZZ       0.4425   YZZZ      -5.2751   ZZZZ    -113.5357
 -----------------------------------------------------------------
 Calculating analytic gradient of the SCF energy
 Gradient of Coulomb and Exchange Energy
            1           2           3           4           5           6
    1   2.8531706  -0.2588627  -3.5174824 -10.6956899   3.7793577   3.4643968
    2  -0.5024380  -0.2281026  -2.2226913   4.0894884  -3.7229215   3.9115366
    3  -1.5880030   3.9518541   0.5520114  -0.6563973  -1.0408868   0.3093099
            7           8           9          10          11          12
    1  -1.1655249  -0.3074899  -2.8003760   1.2618556   4.2384079   0.3836298
    2   1.1609332   2.4685594  -2.1932486   2.5850189  -1.2348160  -1.7395411
    3  -4.2293849   4.1650160   3.5254292  -3.4766380   0.8503660   1.6265924
           13          14          15          16          17
    1  -1.4966036   2.0183235   3.2980108  -1.0013270  -0.0537963
    2  -3.4600500  -0.4586314   0.7588398   3.9698808  -3.1818167
    3  -2.6944654   3.3532030  -2.3042039   0.6648714  -3.0086742
 Gradient of SCF Energy
            1           2           3           4           5           6
    1  -0.0040268   0.0007682  -0.0006639   0.0042910   0.0035035   0.0010745
    2  -0.0007810   0.0050808  -0.0008672   0.0022951   0.0002999   0.0009958
    3  -0.0033795   0.0029689  -0.0000524  -0.0038670   0.0032708   0.0006761
            7           8           9          10          11          12
    1   0.0006547   0.0000631   0.0013443  -0.0028806  -0.0016524  -0.0015150
    2  -0.0007641  -0.0015197   0.0002104  -0.0024118   0.0001739  -0.0032796
    3   0.0022393  -0.0016632  -0.0008092   0.0038879  -0.0007899  -0.0051676
           13          14          15          16          17
    1   0.0015291  -0.0011965  -0.0015675   0.0007449  -0.0004705
    2   0.0010695   0.0003292  -0.0003337  -0.0019166   0.0014189
    3   0.0016887  -0.0018769   0.0014416  -0.0003824   0.0018148
 Max gradient component =       5.168E-03
 RMS gradient           =       2.173E-03
 Gradient time:  CPU 61.12 s  wall 82.26 s
 Geometry Optimization Parameters
   NAtoms,    NIC,     NZ,  NCons,   NDum,   NFix, NCnnct, MaxDiis
       17     128       0       0       0       0       0       0

 Cartesian Hessian Update
 Hessian Updated using Powell/Murtagh-Sargent Update
  Mixing factors:     0.985718 Powell
                      0.014282 Murtagh-Sargent


** GEOMETRY OPTIMIZATION IN DELOCALIZED INTERNAL COORDINATES **
   Searching for a Transition State

   Optimization Cycle:   4

                       Coordinates (Angstroms)
     ATOM              X           Y           Z
      1  C        -0.854733   -0.179623    0.345833
      2  C         0.242634    0.119971   -0.679826
      3  C         1.573383    0.572385   -0.149502
      4  O         2.356481   -0.500924    0.362724
      5  C        -1.344993    1.263607    0.283529
      6  C        -1.884443   -1.180117   -0.149590
      7  H        -0.473686   -0.479781    1.329907
      8  H         0.264946   -0.508720   -1.571758
      9  H         2.180860    1.014899   -0.939086
     10  H         1.857084   -0.938225    1.063650
     11  H        -2.397649    1.440190    0.068650
     12  H        -0.554610    1.260792   -0.867872
     13  H        -0.872031    1.973962    0.955135
     14  H        -2.297779   -0.855140   -1.110215
     15  H        -2.713486   -1.274775    0.556083
     16  H        -1.439917   -2.167945   -0.293199
     17  H         1.424392    1.334704    0.628341
   Point Group: c1    Number of degrees of freedom:    45


   Energy is   -272.203277755

 GETINT wrote B to file, NVib is           45
 Hessian Updated using Powell/Murtagh-Sargent Update
  Mixing factors:     0.972988 Powell
                      0.027012 Murtagh-Sargent

 45 Hessian modes will be used to form the next step
  Hessian Eigenvalues:
     0.002666    0.006370    0.008652    0.012302    0.026666    0.029312
     0.039112    0.040347    0.041227    0.050371    0.054750    0.056488
     0.057804    0.059773    0.066315    0.081286    0.091801    0.105008
     0.108622    0.113619    0.117735    0.139987    0.146414    0.151296
     0.157699    0.160000    0.160000    0.160011    0.160071    0.220448
     0.264714    0.273795    0.302366    0.319648    0.335689    0.339002
     0.340710    0.343077    0.343182    0.344984    0.346849    0.348662
     0.349918    0.416709    0.538235
**WARNING** Hessian does not have the Desired Local Structure

 Transition State Search - Taking P-RFO Step
 Searching for Lamda that Maximizes Along the Lowest mode
 Value Taken    Lamda =   0.00366470
 Searching for Lamda that Minimizes Along All other modes
 Value Taken    Lamda =  -0.00069035
 Calculated Step too Large.  Step scaled by  0.156378
 Step Taken.  Stepsize is  0.300000

                             Maximum     Tolerance    Cnvgd?
         Gradient           0.004437      0.000300      NO
         Displacement       0.138463      0.001200      NO
         Energy change      0.000412      0.000001      NO


 New Cartesian Coordinates Obtained by Inverse Iteration

 Displacement from previous Coordinates is:  0.425559
 ----------------------------------------------------
       Standard Nuclear Orientation (Angstroms)
    I     Atom         X            Y            Z
 ----------------------------------------------------
    1      C      -0.850977    -0.203337     0.354863
    2      C       0.243294     0.087493    -0.675001
    3      C       1.562811     0.585803    -0.157128
    4      O       2.366083    -0.452963     0.393414
    5      C      -1.323384     1.245960     0.300635
    6      C      -1.900350    -1.166380    -0.172408
    7      H      -0.485170    -0.534119     1.334242
    8      H       0.285580    -0.566207    -1.547574
    9      H       2.162326     1.010083    -0.962414
   10      H       1.879387    -0.870374     1.114009
   11      H      -2.383552     1.439689     0.147461
   12      H      -0.578950     1.215039    -0.878351
   13      H      -0.799504     1.955957     0.931121
   14      H      -2.302020    -0.801724    -1.123195
   15      H      -2.733485    -1.264234     0.527185
   16      H      -1.476944    -2.158125    -0.345472
   17      H       1.401309     1.372700     0.591417
 ----------------------------------------------------
 Molecular Point Group                 C1    NOp =  1
 Largest Abelian Subgroup              C1    NOp =  1
 Nuclear Repulsion Energy =   249.1574190284 hartrees
 There are       25 alpha and       24 beta electrons
 Applying Cartesian multipole field
    Component          Value
    ---------          -----
     (2,0,0)        1.00000E-11
     (0,2,0)        2.00000E-11
     (0,0,2)       -3.00000E-11
 Nucleus-field energy     =     0.0000000058 hartrees
 Requested basis set is non-standard
 There are 138 shells and 314 basis functions
 A cutoff of  1.0D-11 yielded   9038 shell pairs
 There are     46478 function pairs (     55787 Cartesian)
 Smallest overlap matrix eigenvalue = 1.17E-05
 Guess MOs from SCF MO coefficient file
Reading MOs from coefficient file
Reading MOs from coefficient file
 An unrestricted hybrid HF-DFT SCF calculation will be
 performed using Pulay DIIS extrapolation
 Exchange:     0.5400 Hartree-Fock + 1.0000 M062X
 SCF converges when DIIS error is below 1.0E-08
Geometry optimization detected.  Setting ReadMinima to 0
Setting SaveMinima to 0
 ---------------------------------------
  Cycle       Energy         DIIS Error
 ---------------------------------------
    1    -272.2030138565      5.12E-04
    2    -272.2025126854      6.78E-05
    3    -272.2026456301      3.35E-05
    4    -272.2026605100      1.94E-05
    5    -272.2026661429      4.71E-06
    6    -272.2026666053      1.26E-06
    7    -272.2026666879      5.78E-07
    8    -272.2026667037      2.05E-07
    9    -272.2026667069      8.48E-08
   10    -272.2026667075      3.70E-08
   11    -272.2026667077      1.27E-08
   12    -272.2026667076      5.34E-09 Convergence criterion met
 ---------------------------------------
 <S^2> = 0.7610
 SCF time:  CPU 218.01 s  wall 316.93 s
 SCF   energy in the final basis set = -272.2026667076
 Total energy in the final basis set = -272.2026667076
 Analysis of SCF Wavefunction
 
 --------------------------------------------------------------
                    Orbital Energies (a.u.)
 --------------------------------------------------------------
 
 Alpha MOs
 -- Occupied --
-19.622 -10.585 -10.552 -10.550 -10.548 -10.532  -1.144  -0.941
 -0.825  -0.781  -0.712  -0.648  -0.591  -0.565  -0.525  -0.512
 -0.503  -0.463  -0.457  -0.428  -0.410  -0.387  -0.377  -0.356
 -0.229
 -- Virtual --
 -0.005   0.007   0.011   0.017   0.035   0.037   0.042   0.046
  0.048   0.068   0.073   0.085   0.089   0.095   0.105   0.116
  0.122   0.126   0.135   0.139   0.144   0.149   0.156   0.160
  0.166   0.168   0.174   0.181   0.185   0.189   0.196   0.218
  0.219   0.228   0.237   0.248   0.250   0.260   0.266   0.279
  0.284   0.294   0.312   0.328   0.339   0.349   0.356   0.359
  0.379   0.396   0.423   0.450   0.461   0.471   0.482   0.490
  0.517   0.531   0.543   0.556   0.562   0.585   0.592   0.596
  0.600   0.604   0.616   0.619   0.629   0.638   0.641   0.649
  0.664   0.667   0.680   0.710   0.724   0.738   0.740   0.755
  0.773   0.796   0.807   0.829   0.863   0.877   0.915   0.929
  0.962   0.972   0.982   1.001   1.022   1.047   1.058   1.071
  1.080   1.095   1.121   1.142   1.154   1.158   1.178   1.214
  1.218   1.228   1.240   1.264   1.272   1.288   1.305   1.309
  1.336   1.338   1.354   1.355   1.386   1.400   1.403   1.411
  1.428   1.442   1.449   1.465   1.477   1.490   1.494   1.511
  1.525   1.545   1.578   1.582   1.583   1.595   1.604   1.609
  1.632   1.657   1.664   1.687   1.732   1.745   1.762   1.817
  1.948   2.088   2.128   2.302   2.328   2.446   2.488   2.522
  2.528   2.542   2.584   2.627   2.661   2.709   2.730   2.751
  2.762   2.796   2.813   2.842   2.872   2.893   2.910   2.938
  2.974   2.978   2.983   3.019   3.039   3.054   3.067   3.111
  3.127   3.143   3.170   3.186   3.194   3.201   3.226   3.236
  3.267   3.300   3.315   3.328   3.356   3.380   3.400   3.417
  3.420   3.454   3.474   3.493   3.522   3.533   3.557   3.571
  3.598   3.606   3.619   3.650   3.663   3.720   3.724   3.736
  3.753   3.758   3.777   3.786   3.812   3.824   3.875   3.893
  3.917   3.953   3.968   4.002   4.014   4.059   4.065   4.075
  4.085   4.114   4.135   4.148   4.172   4.194   4.221   4.225
  4.238   4.275   4.279   4.308   4.331   4.336   4.352   4.390
  4.402   4.429   4.457   4.471   4.503   4.514   4.523   4.562
  4.586   4.612   4.657   4.659   4.770   4.785   4.873   4.887
  4.916   4.986   5.139   5.210   5.241   5.251   5.324   5.414
  5.455   5.468   5.521   5.540   5.557   5.581   5.588   5.617
  5.642   5.668   5.824   5.947   6.494   6.980   7.180   7.214
  7.221   7.521   7.646  24.236  24.280  24.362  24.457  24.509
 50.140
 
 Beta MOs
 -- Occupied --
-19.621 -10.585 -10.553 -10.544 -10.542 -10.532  -1.141  -0.929
 -0.819  -0.770  -0.700  -0.641  -0.588  -0.547  -0.519  -0.505
 -0.497  -0.460  -0.450  -0.421  -0.407  -0.377  -0.366  -0.350
 -- Virtual --
 -0.032  -0.003   0.009   0.013   0.024   0.038   0.040   0.045
  0.050   0.051   0.071   0.076   0.084   0.091   0.096   0.103
  0.121   0.125   0.126   0.136   0.140   0.143   0.150   0.155
  0.161   0.163   0.169   0.176   0.182   0.185   0.191   0.198
  0.219   0.222   0.230   0.238   0.245   0.251   0.261   0.267
  0.280   0.287   0.296   0.314   0.330   0.340   0.349   0.359
  0.360   0.384   0.399   0.422   0.450   0.465   0.475   0.483
  0.492   0.521   0.538   0.549   0.558   0.567   0.585   0.593
  0.598   0.602   0.607   0.619   0.621   0.631   0.640   0.645
  0.660   0.669   0.670   0.685   0.711   0.724   0.740   0.744
  0.755   0.777   0.798   0.815   0.829   0.864   0.878   0.916
  0.929   0.964   0.974   0.983   1.003   1.022   1.048   1.060
  1.075   1.082   1.097   1.123   1.143   1.155   1.158   1.181
  1.215   1.221   1.230   1.242   1.264   1.274   1.291   1.308
  1.312   1.337   1.340   1.357   1.360   1.386   1.402   1.408
  1.418   1.430   1.447   1.450   1.468   1.480   1.494   1.496
  1.514   1.526   1.548   1.582   1.586   1.587   1.598   1.609
  1.615   1.640   1.662   1.667   1.691   1.737   1.748   1.767
  1.820   1.950   2.092   2.130   2.302   2.330   2.448   2.490
  2.532   2.535   2.547   2.589   2.633   2.661   2.729   2.742
  2.758   2.772   2.807   2.820   2.857   2.882   2.907   2.918
  2.960   2.980   2.986   3.000   3.027   3.058   3.066   3.081
  3.125   3.144   3.165   3.180   3.196   3.204   3.222   3.240
  3.245   3.279   3.310   3.330   3.339   3.371   3.394   3.412
  3.428   3.431   3.475   3.483   3.508   3.540   3.549   3.572
  3.585   3.611   3.615   3.637   3.665   3.679   3.728   3.742
  3.745   3.757   3.772   3.791   3.806   3.812   3.841   3.879
  3.907   3.940   3.967   3.974   4.009   4.022   4.058   4.072
  4.083   4.094   4.124   4.144   4.158   4.181   4.200   4.222
  4.232   4.245   4.281   4.289   4.315   4.338   4.346   4.371
  4.399   4.411   4.438   4.471   4.488   4.509   4.523   4.538
  4.566   4.592   4.622   4.657   4.671   4.782   4.797   4.874
  4.904   4.935   5.000   5.157   5.218   5.243   5.256   5.334
  5.417   5.471   5.482   5.529   5.550   5.577   5.582   5.609
  5.619   5.646   5.669   5.826   5.947   6.493   6.982   7.181
  7.217   7.224   7.522   7.648  24.244  24.290  24.362  24.458
 24.512  50.139
 --------------------------------------------------------------
 
          Ground-State Mulliken Net Atomic Charges

     Atom                 Charge (a.u.)    Spin (a.u.)
  --------------------------------------------------------
      1 C                     0.475230      -0.142815
      2 C                    -0.344786       0.614230
      3 C                    -0.453840      -0.007394
      4 O                    -0.277238       0.021618
      5 C                    -0.635359       0.615840
      6 C                    -0.575096       0.033784
      7 H                     0.163414       0.003614
      8 H                     0.201200      -0.023250
      9 H                     0.147040       0.003154
     10 H                     0.236438       0.002140
     11 H                     0.175499      -0.011781
     12 H                     0.140571      -0.077726
     13 H                     0.133234      -0.022924
     14 H                     0.143407      -0.001577
     15 H                     0.152308      -0.002677
     16 H                     0.144071      -0.003036
     17 H                     0.173907      -0.001201
  --------------------------------------------------------
  Sum of atomic charges =     0.000000
  Sum of spin   charges =     1.000000

 -----------------------------------------------------------------
[...]
  4.923   5.016   5.100   5.209   5.242   5.262   5.292   5.417
  5.465   5.467   5.522   5.539   5.559   5.585   5.591   5.624
  5.669   5.686   5.824   5.951   6.495   6.987   7.198   7.218
  7.226   7.519   7.646  24.241  24.292  24.370  24.459  24.515
 50.141
 
 Beta MOs
 -- Occupied --
-19.621 -10.585 -10.551 -10.541 -10.538 -10.531  -1.142  -0.925
 -0.819  -0.773  -0.698  -0.644  -0.588  -0.543  -0.516  -0.508
 -0.492  -0.464  -0.458  -0.422  -0.407  -0.376  -0.364  -0.351
 -- Virtual --
 -0.026  -0.003   0.010   0.013   0.024   0.037   0.042   0.044
  0.045   0.053   0.071   0.076   0.081   0.088   0.101   0.104
  0.119   0.120   0.130   0.137   0.140   0.142   0.147   0.151
  0.160   0.168   0.173   0.176   0.179   0.184   0.195   0.197
  0.208   0.220   0.228   0.243   0.246   0.254   0.260   0.275
  0.277   0.288   0.306   0.322   0.332   0.334   0.348   0.355
  0.369   0.390   0.395   0.421   0.453   0.462   0.471   0.475
  0.488   0.524   0.526   0.544   0.552   0.565   0.587   0.592
  0.601   0.607   0.616   0.621   0.631   0.636   0.643   0.649
  0.658   0.668   0.674   0.688   0.707   0.722   0.724   0.738
  0.748   0.778   0.807   0.810   0.825   0.879   0.893   0.921
  0.953   0.965   0.967   0.995   1.013   1.026   1.036   1.046
  1.071   1.087   1.110   1.124   1.142   1.156   1.179   1.189
  1.194   1.220   1.230   1.248   1.258   1.276   1.283   1.307
  1.320   1.338   1.349   1.361   1.371   1.382   1.395   1.409
  1.418   1.424   1.436   1.446   1.456   1.485   1.491   1.500
  1.510   1.537   1.540   1.564   1.568   1.587   1.595   1.612
  1.614   1.644   1.653   1.676   1.687   1.707   1.753   1.792
  1.807   1.971   2.088   2.136   2.296   2.319   2.455   2.479
  2.490   2.512   2.548   2.613   2.650   2.665   2.719   2.727
  2.747   2.761   2.797   2.829   2.843   2.878   2.910   2.930
  2.976   2.991   3.003   3.029   3.033   3.063   3.092   3.096
  3.116   3.147   3.158   3.173   3.182   3.201   3.222   3.239
  3.242   3.267   3.277   3.325   3.350   3.356   3.376   3.399
  3.404   3.433   3.448   3.468   3.492   3.525   3.560   3.573
  3.589   3.612   3.624   3.641   3.680   3.685   3.700   3.725
  3.734   3.773   3.776   3.798   3.803   3.826   3.848   3.874
  3.915   3.943   3.970   3.985   4.014   4.017   4.051   4.079
  4.091   4.099   4.116   4.148   4.149   4.189   4.229   4.235
  4.239   4.251   4.259   4.287   4.305   4.324   4.347   4.377
  4.405   4.410   4.458   4.481   4.500   4.510   4.519   4.522
  4.534   4.577   4.615   4.630   4.653   4.788   4.798   4.841
  4.902   4.943   5.028   5.120   5.215   5.244   5.267   5.307
  5.421   5.472   5.490   5.532   5.568   5.578   5.591   5.602
  5.626   5.672   5.692   5.826   5.952   6.494   6.989   7.200
  7.221   7.228   7.521   7.648  24.250  24.302  24.370  24.461
 24.518  50.140
 --------------------------------------------------------------
 
          Ground-State Mulliken Net Atomic Charges

     Atom                 Charge (a.u.)    Spin (a.u.)
  --------------------------------------------------------
      1 C                     0.249565      -0.098884
      2 C                    -0.217954       0.547426
      3 C                    -0.451313       0.003201
      4 O                    -0.267160       0.022222
      5 C                    -0.574428       0.625380
      6 C                    -0.533469       0.028333
      7 H                     0.172293       0.003050
      8 H                     0.202304      -0.022511
      9 H                     0.146038       0.001158
     10 H                     0.237264       0.000603
     11 H                     0.157849      -0.017312
     12 H                     0.131612      -0.066022
     13 H                     0.152738      -0.020737
     14 H                     0.138206      -0.001105
     15 H                     0.151661      -0.003434
     16 H                     0.136128      -0.002618
     17 H                     0.168667       0.001248
  --------------------------------------------------------
  Sum of atomic charges =     0.000000
  Sum of spin   charges =     1.000000

 -----------------------------------------------------------------
                    Cartesian Multipole Moments
 -----------------------------------------------------------------
    Charge (ESU x 10^10)
                 0.0000
    Dipole Moment (Debye)
         X      -1.6430      Y       0.2762      Z       0.6538
       Tot       1.7897
    Quadrupole Moments (Debye-Ang)
        XX     -45.9971     XY       2.7372     YY     -40.1378
        XZ       0.6793     YZ      -0.8583     ZZ     -38.3548
    Octapole Moments (Debye-Ang^2)
       XXX      -9.6765    XXY       6.8000    XYY       4.5990
       YYY      -6.6448    XXZ      -2.3042    XYZ      -2.4467
       YYZ       5.0731    XZZ       6.2198    YZZ      -3.0273
       ZZZ       2.6701
    Hexadecapole Moments (Debye-Ang^3)
      XXXX    -692.1723   XXXY      23.1290   XXYY    -154.3195
      XYYY      -0.4684   YYYY    -265.7709   XXXZ       1.2196
      XXYZ      -7.7855   XYYZ       4.5435   YYYZ       1.4731
      XXZZ    -120.9703   XYZZ      -0.1397   YYZZ     -60.4345
      XZZZ       7.9933   YZZZ       0.8235   ZZZZ    -107.0140
 -----------------------------------------------------------------
 Calculating analytic gradient of the SCF energy
 Gradient of Coulomb and Exchange Energy
            1           2           3           4           5           6
    1   3.1607794   0.2360219  -4.0840330 -10.2250274   3.3377405   3.0022122
    2  -0.8197357  -0.9407245  -2.3005489   5.1938070  -3.6660967   4.0094945
    3  -1.4169711   3.2476081   0.3671947   0.0681930  -0.7484557   0.1519291
            7           8           9          10          11          12
    1  -1.3374928   0.0204591  -2.9309468   1.5161162   4.0909577   0.1077967
    2   0.8111799   1.9161280  -2.2379613   2.7374499  -0.9591141  -2.2496166
    3  -4.4442305   4.5128038   3.3826042  -3.2386388   1.7978520   1.2779791
           13          14          15          16          17
    1  -0.4405604   1.9506326   3.3045895  -1.2972239  -0.4120216
    2  -3.2900292  -0.0517457   0.7718146   3.9498793  -2.8741804
    3  -3.0539540   3.4372405  -2.3101601   0.2234900  -3.2544842
 Gradient of SCF Energy
            1           2           3           4           5           6
    1   0.0000492  -0.0000370  -0.0000327   0.0000002  -0.0000303  -0.0000273
    2  -0.0000169   0.0000604  -0.0000088  -0.0000636   0.0001225   0.0000187
    3   0.0000421  -0.0000180  -0.0000228  -0.0000278   0.0001862   0.0000224
            7           8           9          10          11          12
    1   0.0000241  -0.0000537   0.0000061  -0.0000141   0.0000407   0.0001194
    2  -0.0000248   0.0000399  -0.0000680  -0.0000492   0.0000045  -0.0001069
    3  -0.0000164  -0.0000228  -0.0000489  -0.0000528   0.0000132  -0.0000734
           13          14          15          16          17
    1   0.0000309  -0.0000272  -0.0000307  -0.0000613   0.0000437
    2   0.0000002   0.0000477   0.0000690   0.0000166  -0.0000414
    3   0.0000298   0.0000033   0.0000114   0.0000068  -0.0000324
 Max gradient component =       1.862E-04
 RMS gradient           =       5.236E-05
 Gradient time:  CPU 60.10 s  wall 77.74 s
 Geometry Optimization Parameters
   NAtoms,    NIC,     NZ,  NCons,   NDum,   NFix, NCnnct, MaxDiis
       17     128       0       0       0       0       0       0

 Cartesian Hessian Update
 Hessian Updated using Powell/Murtagh-Sargent Update
  Mixing factors:     0.757936 Powell
                      0.242064 Murtagh-Sargent


** GEOMETRY OPTIMIZATION IN DELOCALIZED INTERNAL COORDINATES **
   Searching for a Transition State

   Optimization Cycle:  22

                       Coordinates (Angstroms)
     ATOM              X           Y           Z
      1  C        -0.856507   -0.082726    0.346906
      2  C         0.234519    0.259373   -0.672926
      3  C         1.621178    0.493494   -0.153166
      4  O         2.268251   -0.716141    0.226644
      5  C        -1.463198    1.313766    0.234931
      6  C        -1.785284   -1.212220   -0.063418
      7  H        -0.445571   -0.274497    1.340558
      8  H         0.156463   -0.239303   -1.636341
      9  H         2.255243    0.937270   -0.917373
     10  H         1.733984   -1.152019    0.894733
     11  H        -2.435773    1.392460   -0.239988
     12  H        -0.461790    1.457447   -0.728638
     13  H        -1.268241    2.023991    1.029593
     14  H        -2.193489   -1.019049   -1.056808
     15  H        -2.621120   -1.306312    0.629220
     16  H        -1.258081   -2.165068   -0.098188
     17  H         1.585868    1.184794    0.697061
   Point Group: c1    Number of degrees of freedom:    45


   Energy is   -272.204722649

 GETINT wrote B to file, NVib is           45
 Hessian Updated using Powell/Murtagh-Sargent Update
  Mixing factors:     0.896770 Powell
                      0.103230 Murtagh-Sargent

 45 Hessian modes will be used to form the next step
  Hessian Eigenvalues:
    -0.022679    0.002613    0.005979    0.011151    0.022551    0.028324
     0.034099    0.038641    0.041455    0.050279    0.051520    0.055919
     0.057735    0.059678    0.064379    0.074361    0.081712    0.096670
     0.104263    0.109809    0.115950    0.117848    0.139872    0.150405
     0.156412    0.159746    0.159981    0.160010    0.160086    0.220172
     0.262729    0.272973    0.302293    0.319162    0.335627    0.338939
     0.340592    0.343067    0.343171    0.344946    0.346840    0.348647
     0.349854    0.416065    0.538221

 Transition State Search - Taking P-RFO Step
 Searching for Lamda that Maximizes Along the Lowest mode
 Value Taken    Lamda =   0.00000026
 Searching for Lamda that Minimizes Along All other modes
 Value Taken    Lamda =  -0.00000140
 Step Taken.  Stepsize is  0.019865

                             Maximum     Tolerance    Cnvgd?
         Gradient           0.000124      0.000300     YES
         Displacement       0.007895      0.001200      NO
         Energy change     -0.000001      0.000001     YES

 Final energy is   -272.204722649282     


 ******************************
 **  OPTIMIZATION CONVERGED  **
 ******************************

Z-matrix Print:
$molecule
0 2
C 
H  1 1.092241
C  1 1.518799 2 110.198909
H  3 1.089528 1 111.290719 2 60.398912 0
H  3 1.089597 1 111.197429 2 -60.587740 0
H  3 1.091224 1 110.062917 2 179.926233 0
C  1 1.526696 2 112.137800 3 -129.039216 0
H  7 1.083474 1 118.314050 2 -11.678903 0
H  7 1.085193 1 117.037810 2 134.351344 0
H  7 1.397114 1 81.941718 2 -117.863836 0
C  10 1.386842 7 104.083048 1 3.507601 0
H  11 1.087630 10 108.933677 7 -118.187450 0
C  11 1.499262 10 110.083993 7 113.027174 0
H  13 1.087652 11 111.058065 10 76.043446 0
H  13 1.096370 11 109.725887 10 -43.089341 0
O  13 1.423438 11 112.348691 10 -165.910350 0
H  16 0.960090 13 108.573147 11 57.933645 0
$end

 Analysis of SCF Wavefunction
 
 --------------------------------------------------------------
                    Orbital Energies (a.u.)
 --------------------------------------------------------------
 
 Alpha MOs
 -- Occupied --
-19.622 -10.585 -10.551 -10.546 -10.544 -10.531  -1.145  -0.937
 -0.825  -0.785  -0.711  -0.651  -0.591  -0.559  -0.523  -0.517
 -0.496  -0.467  -0.466  -0.429  -0.409  -0.385  -0.376  -0.357
 -0.223
 -- Virtual --
 -0.005   0.007   0.011   0.017   0.034   0.038   0.040   0.043
  0.050   0.068   0.071   0.083   0.087   0.101   0.102   0.116
  0.119   0.128   0.136   0.139   0.144   0.149   0.151   0.159
  0.166   0.169   0.178   0.180   0.183   0.191   0.193   0.206
  0.220   0.226   0.241   0.247   0.253   0.259   0.273   0.275
  0.285   0.305   0.320   0.330   0.335   0.347   0.353   0.366
  0.385   0.395   0.421   0.452   0.459   0.468   0.471   0.487
  0.520   0.522   0.539   0.544   0.562   0.587   0.591   0.599
  0.606   0.614   0.619   0.626   0.634   0.638   0.648   0.655
  0.664   0.666   0.680   0.706   0.717   0.720   0.735   0.744
  0.773   0.803   0.809   0.823   0.878   0.892   0.921   0.950
  0.965   0.966   0.994   1.012   1.026   1.034   1.044   1.070
  1.085   1.109   1.123   1.143   1.155   1.175   1.185   1.192
  1.220   1.228   1.245   1.259   1.274   1.280   1.305   1.318
  1.335   1.347   1.359   1.368   1.378   1.392   1.405   1.413
  1.421   1.433   1.445   1.452   1.483   1.490   1.496   1.505
  1.535   1.538   1.559   1.564   1.582   1.592   1.604   1.611
  1.639   1.645   1.672   1.681   1.704   1.751   1.789   1.801
  1.969   2.085   2.134   2.294   2.318   2.447   2.476   2.480
  2.507   2.543   2.609   2.647   2.658   2.699   2.715   2.737
  2.756   2.788   2.820   2.837   2.860   2.899   2.921   2.964
  2.984   2.991   3.017   3.019   3.044   3.068   3.086   3.104
  3.122   3.139   3.162   3.174   3.183   3.212   3.226   3.236
  3.259   3.264   3.314   3.333   3.337   3.360   3.382   3.389
  3.422   3.432   3.452   3.480   3.510   3.536   3.559   3.581
  3.599   3.606   3.625   3.665   3.673   3.692   3.712   3.727
  3.762   3.769   3.781   3.796   3.809   3.842   3.868   3.896
  3.935   3.947   3.969   4.007   4.011   4.048   4.072   4.083
  4.096   4.108   4.134   4.142   4.175   4.219   4.223   4.233
  4.241   4.254   4.277   4.289   4.316   4.338   4.366   4.397
  4.400   4.446   4.473   4.483   4.498   4.509   4.514   4.528
  4.562   4.606   4.624   4.649   4.786   4.798   4.824   4.887
  4.923   5.016   5.100   5.209   5.242   5.262   5.292   5.417
  5.465   5.467   5.522   5.539   5.559   5.585   5.591   5.624
  5.669   5.686   5.824   5.951   6.495   6.987   7.198   7.218
  7.226   7.519   7.646  24.241  24.292  24.370  24.459  24.515
 50.141
 
 Beta MOs
 -- Occupied --
-19.621 -10.585 -10.551 -10.541 -10.538 -10.531  -1.142  -0.925
 -0.819  -0.773  -0.698  -0.644  -0.588  -0.543  -0.516  -0.508
 -0.492  -0.464  -0.458  -0.422  -0.407  -0.376  -0.364  -0.351
 -- Virtual --
 -0.026  -0.003   0.010   0.013   0.024   0.037   0.042   0.044
  0.045   0.053   0.071   0.076   0.081   0.088   0.101   0.104
  0.119   0.120   0.130   0.137   0.140   0.142   0.147   0.151
  0.160   0.168   0.173   0.176   0.179   0.184   0.195   0.197
  0.208   0.220   0.228   0.243   0.246   0.254   0.260   0.275
  0.277   0.288   0.306   0.322   0.332   0.334   0.348   0.355
  0.369   0.390   0.395   0.421   0.453   0.462   0.471   0.475
  0.488   0.524   0.526   0.544   0.552   0.565   0.587   0.592
  0.601   0.607   0.616   0.621   0.631   0.636   0.643   0.649
  0.658   0.668   0.674   0.688   0.707   0.722   0.724   0.738
  0.748   0.778   0.807   0.810   0.825   0.879   0.893   0.921
  0.953   0.965   0.967   0.995   1.013   1.026   1.036   1.046
  1.071   1.087   1.110   1.124   1.142   1.156   1.179   1.189
  1.194   1.220   1.230   1.248   1.258   1.276   1.283   1.307
  1.320   1.338   1.349   1.361   1.371   1.382   1.395   1.409
  1.418   1.424   1.436   1.446   1.456   1.485   1.491   1.500
  1.510   1.537   1.540   1.564   1.568   1.587   1.595   1.612
  1.614   1.644   1.653   1.676   1.687   1.707   1.753   1.792
  1.807   1.971   2.088   2.136   2.296   2.319   2.455   2.479
  2.490   2.512   2.548   2.613   2.650   2.665   2.719   2.727
  2.747   2.761   2.797   2.829   2.843   2.878   2.910   2.930
  2.976   2.991   3.003   3.029   3.033   3.063   3.092   3.096
  3.116   3.147   3.158   3.173   3.182   3.201   3.222   3.239
  3.242   3.267   3.277   3.325   3.350   3.356   3.376   3.399
  3.404   3.433   3.448   3.468   3.492   3.525   3.560   3.573
  3.589   3.612   3.624   3.641   3.680   3.685   3.700   3.725
  3.734   3.773   3.776   3.798   3.803   3.826   3.848   3.874
  3.915   3.943   3.970   3.985   4.014   4.017   4.051   4.079
  4.091   4.099   4.116   4.148   4.149   4.189   4.229   4.235
  4.239   4.251   4.259   4.287   4.305   4.324   4.347   4.377
  4.405   4.410   4.458   4.481   4.500   4.510   4.519   4.522
  4.534   4.577   4.615   4.630   4.653   4.788   4.798   4.841
  4.902   4.943   5.028   5.120   5.215   5.244   5.267   5.307
  5.421   5.472   5.490   5.532   5.568   5.578   5.591   5.602
  5.626   5.672   5.692   5.826   5.952   6.494   6.989   7.200
  7.221   7.228   7.521   7.648  24.250  24.302  24.370  24.461
 24.518  50.140
 --------------------------------------------------------------
 
          Ground-State Mulliken Net Atomic Charges

     Atom                 Charge (a.u.)    Spin (a.u.)
  --------------------------------------------------------
      1 C                     0.249565      -0.098884
      2 C                    -0.217954       0.547426
      3 C                    -0.451313       0.003201
      4 O                    -0.267160       0.022222
      5 C                    -0.574428       0.625380
      6 C                    -0.533469       0.028333
      7 H                     0.172293       0.003050
      8 H                     0.202304      -0.022511
      9 H                     0.146038       0.001158
     10 H                     0.237264       0.000603
     11 H                     0.157849      -0.017312
     12 H                     0.131612      -0.066022
     13 H                     0.152738      -0.020737
     14 H                     0.138206      -0.001105
     15 H                     0.151661      -0.003434
     16 H                     0.136128      -0.002618
     17 H                     0.168667       0.001248
  --------------------------------------------------------
  Sum of atomic charges =     0.000000
  Sum of spin   charges =     1.000000

 -----------------------------------------------------------------
                    Cartesian Multipole Moments
 -----------------------------------------------------------------
    Charge (ESU x 10^10)
                 0.0000
    Dipole Moment (Debye)
         X      -1.6430      Y       0.2762      Z       0.6538
       Tot       1.7897
    Quadrupole Moments (Debye-Ang)
        XX     -45.9971     XY       2.7372     YY     -40.1378
        XZ       0.6793     YZ      -0.8583     ZZ     -38.3548
    Octapole Moments (Debye-Ang^2)
       XXX      -9.6765    XXY       6.8000    XYY       4.5990
       YYY      -6.6448    XXZ      -2.3042    XYZ      -2.4467
       YYZ       5.0731    XZZ       6.2198    YZZ      -3.0273
       ZZZ       2.6701
    Hexadecapole Moments (Debye-Ang^3)
      XXXX    -692.1723   XXXY      23.1290   XXYY    -154.3195
      XYYY      -0.4684   YYYY    -265.7709   XXXZ       1.2196
      XXYZ      -7.7855   XYYZ       4.5435   YYYZ       1.4731
      XXZZ    -120.9703   XYZZ      -0.1397   YYZZ     -60.4345
      XZZZ       7.9933   YZZZ       0.8235   ZZZZ    -107.0140
 -----------------------------------------------------------------
Archival summary:
1\1\node40\TS\ProcedureUnspecified\BasisUnspecified\1511(2)\edames\SatMar2915:01:422014SatMar2915:01:422014\0\\#,TS,ProcedureUnspecified,BasisUnspecified,\\0,2\C\H,1,1.09224\C,1,1.5188,2,110.199\H,3,1.08953,1,111.291,2,60.3989,0\H,3,1.0896,1,111.197,2,-60.5877,0\H,3,1.09122,1,110.063,2,179.926,0\C,1,1.5267,2,112.138,3,-129.039,0\H,7,1.08347,1,118.314,2,-11.6789,0\H,7,1.08519,1,117.038,2,134.351,0\H,7,1.39711,1,81.9417,2,-117.864,0\C,10,1.38684,7,104.083,1,3.5076,0\H,11,1.08763,10,108.934,7,-118.187,0\C,11,1.49926,10,110.084,7,113.027,0\H,13,1.08765,11,111.058,10,76.0434,0\H,13,1.09637,11,109.726,10,-43.0893,0\O,13,1.42344,11,112.349,10,-165.91,0\H,16,0.96009,13,108.573,11,57.9336,0\\\@

 Total job time:  7452.59s(wall), 5942.97s(cpu) 
 Sat Mar 29 15:01:42 2014

        *************************************************************
        *                                                           *
        *  Thank you very much for using Q-Chem.  Have a nice day.  *
        *                                                           *
        *************************************************************


0 sent ACK to 0 
now end server 0 ... 
