
Running Job 1 of 2 ts34.in
qchem ts34.in_15644.0 /tmp/qchem15644/ 4
/opt/qchem/bin/mpi/mpirun_qchem -machinefile /tmp/296622.1.normal1/hostfile -np 4 /opt/qchem/exe/qcprog.exe ts34.in_15644.0 /tmp/qchem15644/

Process 0 of 4 is on node26.cluster - thread support 0
Process 1 of 4 is on node26.cluster - thread support 0
Process 3 of 4 is on node26.cluster - thread support 0
Process 2 of 4 is on node26.cluster - thread support 0
initial socket setup ...start
initial socket setup ...done 
now start server 0 ... 
                  Welcome to Q-Chem
     A Quantum Leap Into The Future Of Chemistry

 Y. Shao, L. Fusti-Molnar, Y. Jung, J. Kussmann, C. Ochsenfeld, S. T. Brown, 
 A. T. B. Gilbert, L. V. Slipchenko, S. V. Levchenko, D. P. O'Neill, 
 R. A. DiStasio Jr., R. C. Lochan, T. Wang, G. J. O. Beran, N. A. Besley, 
 J. M. Herbert, C. Y. Lin, T. Van Voorhis, S. H. Chien, A. Sodt, R. P. Steele, 
 V. A. Rassolov, P. E. Maslen, P. P. Korambath, R. D. Adamson, B. Austin, 
 J. Baker, E. F. C. Byrd, H. Dachsel, R. J. Doerksen, A. Dreuw, B. D. Dunietz, 
 A. D. Dutoi, T. R. Furlani, S. R. Gwaltney, A. Heyden, S. Hirata, C.-P. Hsu, 
 G. Kedziora, R. Z. Khaliullin, P. Klunzinger, A. M. Lee, M. S. Lee, W. Liang, 
 I. Lotan, N. Nair, B. Peters, E. I. Proynov, P. A. Pieniazek, Y. M. Rhee, 
 J. Ritchie, E. Rosta, C. D. Sherrill, A. C. Simmonett, J. E. Subotnik, 
 H. L. Woodcock III, W. Zhang, A. T. Bell, A. K. Chakraborty, D. M. Chipman, 
 F. J. Keil, A. Warshel, W. J. Hehre, H. F. Schaefer III, J. Kong, 
 A. I. Krylov, P. M. W. Gill, M. Head-Gordon

 Additional authors for Version 3.1: 
 Z. Gan, Y. Zhao, N. E. SchultzD. Truhlar, E. Epifanovsky, M. Oana

 Additional authors for Version 3.2: 
 R. Baer, B. R. Brooks, D. Casanova, J.-D. Chai, C.-L. Cheng, C. Cramer, 
 D. Crittenden, A. Ghysels, G. Hawkins, E. G. Hohenstein, C. Kelley, 
 W. Kurlancheek, D. Liotard, E. Livshits, P. Manohar, A. Marenich, 
 D. Neuhauser, R. Olson, M. A. Rohrdanz, K. S. Thanthiriwatte, A. J. W. Thom, 
 V. Vanovschi, C. F. Williams, Q. Wu, Z.-Q. You

 Additional authors for Version 4.0: 
 A. Aspuru-Guzik, Y. Bernard, C. Chang, J. Deng, A. Dreuw, M. Diedenhofen, 
 R. G. Edgar, D. Ghosh, W. A. Goddard III, M. Goldey, L. D. Jacobson, 
 M. Gordon, B. Kaduk, I. Kaliman, K. Khistyaev, R. King, A. Klamt, 
 D. Kosenkov, T. Kus, D. Lambrecht, A. Landau, A. W. Lange, K. Lawler, F. Liu, 
 J. Liu, R. Olivares-Amaya, S. P. Mao, J. Parkhill, N. Russ, M. Schmidt, 
 N. Shenvi, D. Small, Y. C. Su, E. Sundstrom, L. Vogt, O. Vydrov, M. Watson, 
 M. Wormit, X. Xu, S. Yeganeh, I. Y. Zhang, D. Zuev

 Additional authors for Version 4.1: 
 X. Feng, M. W. D. Hanson-Heine, P. Horn, H. Ji, A. Laurent, R. Peverati, 
 N. Mardirossian, N. Sergueev, S. Sharada, P. Zimmerman


 Q-Chem, Version 4.1, Q-Chem, Inc., Pittsburgh, PA (2013).

 Intel X86 Linux Version 4.1.0.1 

 Q-chem begins on Sun Apr 20 14:51:37 2014  

Host: 
0

     Scratch files written to /tmp/qchem15644.0//
 Oct1213 14483_epif 4150   
 Parallel job on  4  processors
Processing $rem in /opt/qchem/config/preferences.
 MEM_TOTAL  2000 
Warning: disabling incdft.
 Q-Chem warning in module /home/scratch/svnadmin/14483_epif/qchem/forms1/BasisType.C, line 1125:

 Setting pure/cartesian flag to 2111 for general basis


Finally everything over in PARseQInput

--------------------------------------------------------------
User input:
--------------------------------------------------------------
$rem
XC_GRID 000075000434
JOBTYPE ts
EXCHANGE M08SO
BASIS gen
GUI=2
UNRESTRICTED TRUE
CORRELATION NONE
$end

$comment
c5h11o-2
$end

$molecule
0 2
C        -0.856507   -0.082726    0.346906
C         0.234519    0.259373   -0.672926
C         1.621178    0.493494   -0.153166
O         2.268251   -0.716141    0.226644
C        -1.463198    1.313766    0.234931
C        -1.785284   -1.212220   -0.063418
H        -0.445571   -0.274497    1.340558
H         0.156463   -0.239303   -1.636341
H         2.255243    0.937270   -0.917373
H         1.733984   -1.152019    0.894733
H        -2.435773    1.392460   -0.239988
H        -0.461790    1.457447   -0.728638
H        -1.268241    2.023991    1.029593
H        -2.193489   -1.019049   -1.056808
H        -2.621120   -1.306312    0.629220
H        -1.258081   -2.165068   -0.098188
H         1.585868    1.184794    0.697061
$end

$basis
H  0
S  3 1.00
3.386500000000E+01 2.549380000000E-02
5.094790000000E+00 1.903730000000E-01
1.158790000000E+00 8.521610000000E-01
S  1 1.00
3.258400000000E-01 1.000000000000E+00
S  1 1.00
1.027410000000E-01 1.000000000000E+00
S  1 1.00
3.600000000000E-02 1.000000000000E+00
P  1 1.00
1.500000000000E+00 1.000000000000E+00
P  1 1.00
3.750000000000E-01 1.000000000000E+00
****
C 0
S  6 1.00
4.563240000000E+03 1.966650000000E-03
6.820240000000E+02 1.523060000000E-02
1.549730000000E+02 7.612690000000E-02
4.445530000000E+01 2.608010000000E-01
1.302900000000E+01 6.164620000000E-01
1.827730000000E+00 2.210060000000E-01
S  3 1.00
2.096420000000E+01 1.146600000000E-01
4.803310000000E+00 9.199990000000E-01
1.459330000000E+00 -3.030680000000E-03
S  1 1.00
4.834560000000E-01 1.000000000000E+00
S  1 1.00
1.455850000000E-01 1.000000000000E+00
S  1 1.00
4.380000000000E-02 1.000000000000E+00
P  3 1.00
2.096420000000E+01 4.024870000000E-02
4.803310000000E+00 2.375940000000E-01
1.459330000000E+00 8.158540000000E-01
P  1 1.00
4.834560000000E-01 1.000000000000E+00
P  1 1.00
1.455850000000E-01 1.000000000000E+00
P  1 1.00
4.380000000000E-02 1.000000000000E+00
D  1 1.00
1.252000000000E+00 1.000000000000E+00
D  1 1.00
3.130000000000E-01 1.000000000000E+00
F  1 1.00
8.000000000000E-01 1.000000000000E+00
****
O  0
S  6 1.00
8.588500000000E+03 1.895150000000E-03
1.297230000000E+03 1.438590000000E-02
2.992960000000E+02 7.073200000000E-02
8.737710000000E+01 2.400010000000E-01
2.567890000000E+01 5.947970000000E-01
3.740040000000E+00 2.808020000000E-01
S  3 1.00
4.211750000000E+01 1.138890000000E-01
9.628370000000E+00 9.208110000000E-01
2.853320000000E+00 -3.274470000000E-03
S  1 1.00
9.056610000000E-01 1.000000000000E+00
S  1 1.00
2.556110000000E-01 1.000000000000E+00
S  1 1.00
8.450000000000E-02 1.000000000000E+00
P  3 1.00
4.211750000000E+01 3.651140000000E-02
9.628370000000E+00 2.371530000000E-01
2.853320000000E+00 8.197020000000E-01
P  1 1.00
9.056610000000E-01 1.000000000000E+00
P  1 1.00
2.556110000000E-01 1.000000000000E+00
P  1 1.00
8.450000000000E-02 1.000000000000E+00
D  1 1.00
2.584000000000E+00 1.000000000000E+00
D  1 1.00
6.460000000000E-01 1.000000000000E+00
F  1 1.00
1.400000000000E+00 1.000000000000E+00
****
$end

--------------------------------------------------------------
 ----------------------------------------------------
       Standard Nuclear Orientation (Angstroms)
    I     Atom         X            Y            Z
 ----------------------------------------------------
    1      C      -0.852146    -0.106074     0.337198
    2      C       0.241701     0.283556    -0.662359
    3      C       1.615452     0.543530    -0.121057
    4      O       2.289304    -0.655979     0.244015
    5      C      -1.493719     1.276129     0.243903
    6      C      -1.746130    -1.251193    -0.105796
    7      H      -0.448264    -0.306075     1.332118
    8      H       0.188232    -0.198493    -1.635862
    9      H       2.246812     1.018076    -0.868840
   10      H       1.758645    -1.118214     0.897095
   11      H      -2.462263     1.338671    -0.241538
   12      H      -0.484944     1.464050    -0.704246
   13      H      -1.326902     1.975864     1.054124
   14      H      -2.147322    -1.049727    -1.100395
   15      H      -2.587454    -1.380093     0.574484
   16      H      -1.193843    -2.189238    -0.151873
   17      H       1.551926     1.217329     0.741489
 ----------------------------------------------------
 Molecular Point Group                 C1    NOp =  1
 Largest Abelian Subgroup              C1    NOp =  1
 Nuclear Repulsion Energy =   248.5852978931 hartrees
 There are       25 alpha and       24 beta electrons
 Requested basis set is non-standard
 There are 138 shells and 314 basis functions

Total QAlloc Memory Limit   2000 MB
Mega-Array Size        61 MB
MEM_STATIC part        62 MB
 A cutoff of  1.0D-11 yielded   9040 shell pairs
 There are     46572 function pairs (     55937 Cartesian)
 Smallest overlap matrix eigenvalue = 1.32E-05

  Scale SEOQF with 1.000000e-01/1.000000e-01/1.000000e-01

 Standard Electronic Orientation quadrupole field applied
 Nucleus-field energy     =     0.0000000061 hartrees
 Guess MOs from core Hamiltonian diagonalization
 An unrestricted hybrid HF-DFT SCF calculation will be
 performed using Pulay DIIS extrapolation
 Exchange:     0.5679 Hartree-Fock + 1.0000 M08SO
 SCF converges when DIIS error is below 1.0E-08
 ---------------------------------------
  Cycle       Energy         DIIS Error
 ---------------------------------------
    1    -191.9968977983      9.20E-02
    2    -166.0153174182      5.02E-02
    3    -174.9338797275      6.37E-02
    4    -245.5149711597      3.66E-02
    5    -269.3502821343      1.47E-02
    6    -270.8809260433      9.34E-03
    7    -271.7579722275      5.70E-03
    8    -272.1150232970      1.08E-03
    9    -272.1318844131      4.40E-04
   10    -272.1356646458      1.06E-04
   11    -272.1360967233      3.17E-05
   12    -272.1361619396      9.35E-06
   13    -272.1361756863      4.82E-06
   14    -272.1361782289      2.39E-06
   15    -272.1361787505      5.91E-07
   16    -272.1361788387      2.51E-07
   17    -272.1361788467      8.13E-08
   18    -272.1361788477      3.57E-08
   19    -272.1361788478      9.36E-09 Convergence criterion met
 ---------------------------------------
 <S^2> = 0.7607
 SCF time:  CPU 1292.90 s  wall 1603.27 s
 SCF   energy in the final basis set = -272.1361788478
 Total energy in the final basis set = -272.1361788478
 Analysis of SCF Wavefunction
 
 --------------------------------------------------------------
                    Orbital Energies (a.u.)
 --------------------------------------------------------------
 
 Alpha MOs
 -- Occupied --
-19.564 -10.544 -10.510 -10.510 -10.507 -10.490  -1.138  -0.939
 -0.826  -0.786  -0.713  -0.655  -0.598  -0.567  -0.530  -0.525
 -0.503  -0.473  -0.472  -0.436  -0.416  -0.392  -0.383  -0.366
 -0.229
 -- Virtual --
 -0.027  -0.016  -0.012  -0.004   0.012   0.017   0.019   0.020
  0.028   0.047   0.051   0.060   0.065   0.078   0.081   0.092
  0.098   0.109   0.118   0.120   0.123   0.126   0.131   0.138
  0.146   0.150   0.156   0.159   0.164   0.175   0.179   0.193
  0.203   0.210   0.224   0.228   0.235   0.242   0.256   0.258
  0.267   0.288   0.303   0.311   0.315   0.327   0.335   0.349
  0.369   0.375   0.401   0.434   0.442   0.451   0.454   0.469
  0.504   0.504   0.521   0.527   0.542   0.564   0.565   0.573
  0.582   0.588   0.598   0.602   0.611   0.616   0.623   0.626
  0.637   0.641   0.660   0.680   0.690   0.702   0.705   0.720
  0.750   0.781   0.784   0.798   0.853   0.865   0.895   0.925
  0.938   0.940   0.965   0.983   0.997   1.007   1.015   1.042
  1.054   1.077   1.092   1.109   1.122   1.143   1.155   1.159
  1.182   1.197   1.209   1.223   1.238   1.247   1.270   1.283
  1.300   1.312   1.321   1.335   1.341   1.358   1.370   1.381
  1.384   1.395   1.404   1.416   1.442   1.449   1.458   1.464
  1.494   1.499   1.521   1.526   1.552   1.556   1.571   1.573
  1.604   1.614   1.636   1.645   1.669   1.715   1.758   1.780
  1.960   2.071   2.121   2.271   2.293   2.408   2.439   2.446
  2.471   2.503   2.573   2.611   2.621   2.658   2.665   2.695
  2.719   2.746   2.781   2.794   2.814   2.861   2.876   2.919
  2.933   2.952   2.968   2.986   3.004   3.020   3.048   3.064
  3.075   3.098   3.119   3.140   3.148   3.174   3.185   3.195
  3.218   3.235   3.278   3.295   3.308   3.325   3.343   3.353
  3.381   3.393   3.408   3.434   3.460   3.494   3.510   3.535
  3.556   3.563   3.585   3.620   3.632   3.657   3.674   3.701
  3.723   3.733   3.747   3.757   3.779   3.789   3.834   3.850
  3.888   3.900   3.923   3.957   3.971   4.006   4.022   4.041
  4.049   4.063   4.083   4.091   4.134   4.161   4.166   4.180
  4.189   4.206   4.231   4.240   4.261   4.289   4.308   4.343
  4.350   4.393   4.423   4.439   4.450   4.459   4.465   4.479
  4.512   4.547   4.575   4.599   4.739   4.774   4.800   4.835
  4.871   4.974   5.059   5.148   5.179   5.198   5.255   5.355
  5.421   5.439   5.481   5.495   5.507   5.531   5.565   5.601
  5.664   5.675   5.760   5.890   6.455   6.963   7.149   7.182
  7.192   7.468   7.590  24.036  24.086  24.169  24.256  24.311
 49.798
 
 Beta MOs
 -- Occupied --
-19.563 -10.544 -10.511 -10.498 -10.495 -10.489  -1.135  -0.930
 -0.823  -0.778  -0.705  -0.650  -0.596  -0.551  -0.524  -0.515
 -0.500  -0.472  -0.466  -0.430  -0.416  -0.386  -0.374  -0.361
 -- Virtual --
 -0.037  -0.030  -0.017  -0.014  -0.002   0.010   0.013   0.015
  0.018   0.023   0.045   0.047   0.057   0.062   0.076   0.080
  0.087   0.096   0.108   0.117   0.118   0.121   0.122   0.129
  0.136   0.142   0.148   0.153   0.156   0.163   0.179   0.181
  0.196   0.204   0.211   0.226   0.228   0.236   0.241   0.256
  0.260   0.270   0.292   0.306   0.312   0.315   0.328   0.336
  0.354   0.372   0.379   0.403   0.435   0.443   0.453   0.455
  0.469   0.506   0.509   0.528   0.536   0.547   0.566   0.567
  0.576   0.587   0.594   0.604   0.610   0.614   0.623   0.629
  0.633   0.647   0.650   0.675   0.682   0.697   0.704   0.711
  0.726   0.757   0.786   0.787   0.803   0.857   0.868   0.897
  0.930   0.942   0.943   0.968   0.987   1.001   1.010   1.019
  1.045   1.059   1.083   1.094   1.111   1.125   1.150   1.160
  1.164   1.184   1.203   1.216   1.228   1.246   1.254   1.279
  1.289   1.308   1.318   1.328   1.340   1.347   1.367   1.378
  1.389   1.393   1.405   1.408   1.421   1.446   1.453   1.464
  1.476   1.499   1.505   1.529   1.540   1.562   1.564   1.575
  1.583   1.611   1.626   1.648   1.657   1.676   1.722   1.765
  1.790   1.963   2.079   2.124   2.273   2.294   2.426   2.449
  2.465   2.478   2.515   2.586   2.622   2.634   2.690   2.702
  2.733   2.746   2.774   2.801   2.817   2.860   2.895   2.908
  2.928   2.957   2.982   2.997   3.007   3.037   3.064   3.069
  3.091   3.109   3.126   3.146   3.156   3.178   3.191   3.201
  3.205   3.238   3.251   3.294   3.317   3.330   3.350   3.371
  3.376   3.399   3.425   3.435   3.451   3.490   3.531   3.544
  3.551   3.571   3.581   3.612   3.641   3.652   3.672   3.694
  3.712   3.733   3.747   3.757   3.772   3.799   3.802   3.854
  3.873   3.902   3.930   3.943   3.972   3.973   4.009   4.033
  4.040   4.050   4.070   4.097   4.099   4.151   4.164   4.182
  4.188   4.205   4.213   4.246   4.269   4.277   4.305   4.329
  4.355   4.368   4.415   4.440   4.462   4.477   4.486   4.493
  4.496   4.545   4.572   4.590   4.615   4.758   4.795   4.856
  4.879   4.938   5.011   5.116   5.172   5.179   5.208   5.297
  5.363   5.454   5.485   5.518   5.533   5.566   5.579   5.599
  5.613   5.670   5.688   5.767   5.891   6.453   6.963   7.151
  7.183   7.193   7.467   7.590  24.045  24.097  24.171  24.261
 24.320  49.798
 --------------------------------------------------------------
 
          Ground-State Mulliken Net Atomic Charges

     Atom                 Charge (a.u.)    Spin (a.u.)
  --------------------------------------------------------
      1 C                     0.286582      -0.090459
      2 C                    -0.235485       0.554171
      3 C                    -0.679889       0.009278
      4 O                    -0.275174       0.012101
      5 C                    -0.711899       0.617052
      6 C                    -0.796907       0.007375
      7 H                     0.257399       0.004960
      8 H                     0.274331      -0.011881
      9 H                     0.200352       0.002434
     10 H                     0.265032       0.001796
     11 H                     0.207127      -0.009168
     12 H                     0.165747      -0.083013
     13 H                     0.199137      -0.014197
     14 H                     0.201963       0.001885
     15 H                     0.212092      -0.000761
     16 H                     0.193567      -0.001058
     17 H                     0.236027      -0.000513
  --------------------------------------------------------
  Sum of atomic charges =     0.000000
  Sum of spin   charges =     1.000000

 -----------------------------------------------------------------
                    Cartesian Multipole Moments
 -----------------------------------------------------------------
    Charge (ESU x 10^10)
                 0.0000
    Dipole Moment (Debye)
         X      -1.7118      Y       0.2577      Z       0.6359
       Tot       1.8442
    Quadrupole Moments (Debye-Ang)
        XX     -46.7298     XY       2.7041     YY     -40.3102
        XZ       0.6462     YZ      -0.8536     ZZ     -38.7294
    Octapole Moments (Debye-Ang^2)
       XXX     -11.3706    XXY       6.4024    XYY       4.8550
       YYY      -7.1760    XXZ      -2.5432    XYZ      -2.5231
       YYZ       4.8746    XZZ       5.9348    YZZ      -2.9983
       ZZZ       2.4028
    Hexadecapole Moments (Debye-Ang^3)
      XXXX    -704.5422   XXXY      18.8348   XXYY    -154.7932
      XYYY      -5.4085   YYYY    -269.7202   XXXZ      -1.8298
      XXYZ      -8.4813   XYYZ       3.0525   YYYZ       0.0986
      XXZZ    -123.0466   XYZZ      -1.7367   YYZZ     -61.3689
      XZZZ       4.9295   YZZZ      -0.5838   ZZZZ    -108.8853
 -----------------------------------------------------------------
 Calculating analytic gradient of the SCF energy
 Gradient of Coulomb and Exchange Energy
            1           2           3           4           5           6
    1   3.7308313   0.0062804  -3.7247651 -10.3513994   3.0381517   2.4754151
    2  -1.3787879  -1.0259813  -2.1376069   4.4808799  -2.7713517   3.7956365
    3  -0.8878436   2.6324588   0.5241358   0.3001445  -0.7120965   0.0563891
            7           8           9          10          11          12
    1  -1.3909929  -0.1107974  -2.9109638   1.6068121   4.0853687   0.3305403
    2   0.8833819   1.8059578  -2.3509672   3.0464446  -0.8999794  -2.1370273
    3  -4.3580945   4.5046937   3.2384060  -3.3708023   1.8567109   1.0543836
           13          14          15          16          17
    1  -0.3304083   1.8661310   3.2192369  -1.2852273  -0.2542135
    2  -3.2869760   0.0242677   0.8992818   3.8065290  -2.7537016
    3  -3.0960116   3.3030240  -2.1236675   0.3240313  -3.2458617
 Gradient of SCF Energy
            1           2           3           4           5           6
    1   0.0001908  -0.0008232   0.0003414  -0.0019425   0.0001958  -0.0009040
    2  -0.0011861   0.0010346   0.0013750   0.0002653   0.0014843  -0.0012759
    3   0.0018969  -0.0006172   0.0010383   0.0008695  -0.0009349  -0.0007340
            7           8           9          10          11          12
    1  -0.0020836   0.0004822  -0.0028850   0.0013702   0.0040411  -0.0005765
    2   0.0009792   0.0019365  -0.0025011   0.0027227  -0.0007132  -0.0017615
    3  -0.0050032   0.0041716   0.0034462  -0.0026179   0.0023045   0.0014228
           13          14          15          16          17
    1  -0.0008552   0.0019179   0.0039240  -0.0025318   0.0001383
    2  -0.0031898  -0.0009027   0.0006656   0.0044024  -0.0033353
    3  -0.0032878   0.0047229  -0.0030268   0.0004609  -0.0041119
 Max gradient component =       5.003E-03
 RMS gradient           =       2.303E-03
 Gradient time:  CPU 99.56 s  wall 120.29 s
 Geometry Optimization Parameters
   NAtoms,    NIC,     NZ,  NCons,   NDum,   NFix, NCnnct, MaxDiis
       17     128       0       0       0       0       0       0


** GEOMETRY OPTIMIZATION IN DELOCALIZED INTERNAL COORDINATES **
   Searching for a Transition State

   Optimization Cycle:   1

                       Coordinates (Angstroms)
     ATOM              X           Y           Z
      1  C        -0.852146   -0.106074    0.337198
      2  C         0.241701    0.283556   -0.662359
      3  C         1.615452    0.543530   -0.121057
      4  O         2.289304   -0.655979    0.244015
      5  C        -1.493719    1.276129    0.243903
      6  C        -1.746130   -1.251193   -0.105796
      7  H        -0.448264   -0.306075    1.332118
      8  H         0.188232   -0.198493   -1.635862
      9  H         2.246812    1.018076   -0.868840
     10  H         1.758645   -1.118214    0.897095
     11  H        -2.462263    1.338671   -0.241538
     12  H        -0.484944    1.464050   -0.704246
     13  H        -1.326902    1.975864    1.054124
     14  H        -2.147322   -1.049727   -1.100395
     15  H        -2.587454   -1.380093    0.574484
     16  H        -1.193843   -2.189238   -0.151873
     17  H         1.551926    1.217329    0.741489
   Point Group: c1    Number of degrees of freedom:    45


   Energy is   -272.136178848


 Attempting to Generate Delocalized Internal Coordinates
 GETINT wrote B to file, NVib is           45
 calling HSSCONV
 HCONV 3*NATOMS:           51
 wrote HINT to file
  writing hessian 

 45 Hessian modes will be used to form the next step
  Hessian Eigenvalues:
     0.004299    0.006692    0.009276    0.012545    0.026994    0.029396
     0.039140    0.039369    0.040417    0.051259    0.054338    0.056723
     0.058322    0.060448    0.066437    0.081681    0.092171    0.105582
     0.108647    0.113327    0.117029    0.139618    0.149075    0.152255
     0.157888    0.160000    0.160000    0.160000    0.160000    0.220362
     0.267307    0.274222    0.304826    0.324549    0.340867    0.345550
     0.346716    0.348592    0.348672    0.350853    0.350880    0.353742
     0.355779    0.419468    0.554539
**WARNING** Hessian does not have the Desired Local Structure

 Transition State Search - Taking P-RFO Step
 Searching for Lamda that Maximizes Along the Lowest mode
 Value Taken    Lamda =   0.00432434
 Searching for Lamda that Minimizes Along All other modes
 Value Taken    Lamda =  -0.00099115
 Calculated Step too Large.  Step scaled by  0.023171
 Step Taken.  Stepsize is  0.300000

                             Maximum     Tolerance    Cnvgd?
         Gradient           0.008174      0.000300      NO
         Displacement       0.113044      0.001200      NO
         Energy change     *********      0.000001      NO


 New Cartesian Coordinates Obtained by Inverse Iteration

 Displacement from previous Coordinates is:  0.390078
 ----------------------------------------------------
       Standard Nuclear Orientation (Angstroms)
    I     Atom         X            Y            Z
 ----------------------------------------------------
    1      C      -0.853432    -0.084949     0.344981
    2      C       0.238622     0.308545    -0.655018
    3      C       1.623275     0.525557    -0.122269
    4      O       2.275067    -0.696962     0.204928
    5      C      -1.520326     1.283421     0.226516
    6      C      -1.723812    -1.252782    -0.086113
    7      H      -0.452675    -0.263367     1.345469
    8      H       0.165119    -0.147502    -1.639856
    9      H       2.256950     1.005826    -0.864681
   10      H       1.741515    -1.164729     0.851808
   11      H      -2.460877     1.327576    -0.313306
   12      H      -0.462142     1.505473    -0.658713
   13      H      -1.417569     1.979409     1.050715
   14      H      -2.122508    -1.073450    -1.086138
   15      H      -2.566992    -1.386926     0.591130
   16      H      -1.154221    -2.181328    -0.114918
   17      H       1.583090     1.178309     0.757926
 ----------------------------------------------------
 Molecular Point Group                 C1    NOp =  1
 Largest Abelian Subgroup              C1    NOp =  1
 Nuclear Repulsion Energy =   248.5302160942 hartrees
 There are       25 alpha and       24 beta electrons
 Applying Cartesian multipole field
    Component          Value
    ---------          -----
     (2,0,0)        1.00000E-11
     (0,2,0)        2.00000E-11
     (0,0,2)       -3.00000E-11
 Nucleus-field energy     =     0.0000000062 hartrees
 Requested basis set is non-standard
 There are 138 shells and 314 basis functions
 A cutoff of  1.0D-11 yielded   9041 shell pairs
 There are     46601 function pairs (     55971 Cartesian)
 Smallest overlap matrix eigenvalue = 1.33E-05
 Guess MOs from SCF MO coefficient file
Reading MOs from coefficient file
Reading MOs from coefficient file
 An unrestricted hybrid HF-DFT SCF calculation will be
 performed using Pulay DIIS extrapolation
 Exchange:     0.5679 Hartree-Fock + 1.0000 M08SO
 SCF converges when DIIS error is below 1.0E-08
Geometry optimization detected.  Setting ReadMinima to 0
Setting SaveMinima to 0
 Inaccurate integrated density:
   Number of electrons =    49
   Numerical integral  =    48.982565414872
   Relative error      =    -0.0355807860 %
 ---------------------------------------
  Cycle       Energy         DIIS Error
 ---------------------------------------
    1    -272.1260939437      4.95E-04
    2    -272.1358348852      7.05E-05
    3    -272.1359551421      4.16E-05
    4    -272.1359809741      1.25E-05
    5    -272.1359850463      3.58E-06
    6    -272.1359853745      1.34E-06
    7    -272.1359854374      5.18E-07
    8    -272.1359854498      2.08E-07
    9    -272.1359854510      6.59E-08
   10    -272.1359854511      1.84E-08
   11    -272.1359854511      6.08E-09 Convergence criterion met
 ---------------------------------------
 <S^2> = 0.7607
 SCF time:  CPU 727.54 s  wall 901.08 s
 SCF   energy in the final basis set = -272.1359854511
 Total energy in the final basis set = -272.1359854511
 Analysis of SCF Wavefunction
 
 --------------------------------------------------------------
                    Orbital Energies (a.u.)
 --------------------------------------------------------------
 
 Alpha MOs
 -- Occupied --
-19.564 -10.544 -10.510 -10.510 -10.507 -10.489  -1.138  -0.938
 -0.826  -0.786  -0.712  -0.655  -0.598  -0.566  -0.530  -0.526
 -0.502  -0.473  -0.472  -0.437  -0.416  -0.392  -0.383  -0.366
 -0.229
 -- Virtual --
 -0.027  -0.016  -0.012  -0.004   0.012   0.017   0.019   0.019
  0.028   0.047   0.051   0.060   0.064   0.078   0.083   0.092
  0.096   0.110   0.118   0.120   0.123   0.126   0.130   0.138
  0.145   0.151   0.155   0.160   0.163   0.174   0.180   0.191
  0.203   0.210   0.224   0.229   0.233   0.242   0.257   0.260
  0.269   0.289   0.304   0.312   0.315   0.326   0.334   0.351
  0.367   0.377   0.401   0.435   0.441   0.447   0.455   0.468
  0.500   0.506   0.520   0.526   0.543   0.564   0.566   0.573
  0.582   0.587   0.598   0.604   0.612   0.619   0.624   0.626
  0.638   0.641   0.660   0.679   0.689   0.699   0.705   0.720
  0.749   0.781   0.787   0.800   0.854   0.868   0.895   0.922
  0.938   0.942   0.963   0.985   0.997   1.002   1.020   1.041
  1.058   1.075   1.093   1.110   1.127   1.141   1.155   1.158
  1.183   1.193   1.208   1.224   1.236   1.248   1.265   1.289
  1.300   1.314   1.321   1.331   1.337   1.359   1.367   1.379
  1.387   1.392   1.403   1.415   1.441   1.450   1.458   1.465
  1.494   1.503   1.517   1.533   1.553   1.557   1.572   1.574
  1.603   1.613   1.636   1.643   1.667   1.709   1.761   1.786
  1.962   2.071   2.122   2.270   2.292   2.407   2.437   2.447
  2.469   2.501   2.575   2.606   2.628   2.660   2.664   2.689
  2.719   2.745   2.782   2.796   2.812   2.861   2.877   2.921
  2.936   2.957   2.965   2.985   3.004   3.013   3.051   3.063
  3.076   3.101   3.113   3.138   3.145   3.178   3.185   3.199
  3.214   3.235   3.280   3.297   3.307   3.320   3.342   3.354
  3.382   3.395   3.408   3.438   3.459   3.492   3.499   3.541
  3.555   3.562   3.588   3.619   3.634   3.655   3.671   3.700
  3.722   3.736   3.750   3.759   3.780   3.785   3.831   3.856
  3.887   3.899   3.927   3.956   3.972   4.006   4.022   4.037
  4.049   4.054   4.085   4.091   4.135   4.151   4.168   4.180
  4.191   4.205   4.234   4.242   4.261   4.290   4.313   4.341
  4.351   4.399   4.420   4.443   4.445   4.459   4.461   4.477
  4.508   4.549   4.571   4.596   4.742   4.768   4.799   4.835
  4.873   4.976   5.056   5.148   5.179   5.199   5.254   5.355
  5.421   5.437   5.479   5.493   5.505   5.531   5.566   5.601
  5.664   5.677   5.760   5.890   6.455   6.963   7.149   7.182
  7.192   7.468   7.590  24.035  24.086  24.167  24.256  24.310
 49.797
 
 Beta MOs
 -- Occupied --
-19.563 -10.544 -10.511 -10.498 -10.495 -10.489  -1.134  -0.930
 -0.823  -0.778  -0.704  -0.650  -0.595  -0.551  -0.523  -0.516
 -0.499  -0.472  -0.467  -0.430  -0.415  -0.386  -0.373  -0.361
 -- Virtual --
 -0.036  -0.030  -0.017  -0.014  -0.002   0.009   0.013   0.015
  0.018   0.023   0.045   0.047   0.057   0.062   0.076   0.082
  0.086   0.094   0.108   0.117   0.119   0.121   0.122   0.128
  0.136   0.141   0.149   0.152   0.156   0.162   0.179   0.182
  0.194   0.204   0.211   0.226   0.229   0.234   0.241   0.257
  0.262   0.271   0.293   0.307   0.312   0.315   0.327   0.335
  0.357   0.372   0.380   0.403   0.436   0.442   0.451   0.455
  0.468   0.502   0.512   0.526   0.535   0.549   0.567   0.567
  0.576   0.587   0.593   0.603   0.612   0.616   0.625   0.630
  0.633   0.647   0.650   0.675   0.681   0.696   0.704   0.709
  0.727   0.756   0.786   0.790   0.805   0.858   0.871   0.897
  0.927   0.942   0.946   0.966   0.988   1.001   1.006   1.024
  1.043   1.063   1.081   1.095   1.112   1.130   1.148   1.159
  1.164   1.184   1.198   1.215   1.228   1.245   1.254   1.275
  1.294   1.308   1.320   1.328   1.336   1.343   1.369   1.375
  1.388   1.396   1.401   1.408   1.420   1.445   1.455   1.464
  1.473   1.501   1.509   1.532   1.540   1.563   1.565   1.577
  1.584   1.610   1.625   1.649   1.655   1.673   1.718   1.767
  1.795   1.965   2.079   2.124   2.272   2.293   2.426   2.449
  2.462   2.477   2.514   2.588   2.617   2.640   2.685   2.705
  2.731   2.747   2.771   2.804   2.818   2.857   2.895   2.909
  2.929   2.959   2.990   2.994   3.009   3.031   3.059   3.072
  3.086   3.112   3.127   3.142   3.155   3.175   3.193   3.204
  3.206   3.233   3.254   3.296   3.321   3.328   3.345   3.369
  3.376   3.402   3.429   3.432   3.454   3.491   3.527   3.534
  3.557   3.568   3.583   3.616   3.645   3.650   3.671   3.690
  3.711   3.733   3.750   3.759   3.772   3.792   3.803   3.856
  3.876   3.900   3.932   3.947   3.970   3.974   4.009   4.027
  4.038   4.051   4.063   4.097   4.101   4.150   4.157   4.184
  4.188   4.204   4.218   4.248   4.266   4.282   4.307   4.334
  4.356   4.365   4.420   4.437   4.462   4.475   4.485   4.491
  4.496   4.541   4.572   4.584   4.614   4.750   4.799   4.855
  4.880   4.939   5.011   5.114   5.170   5.179   5.208   5.298
  5.363   5.453   5.484   5.515   5.533   5.567   5.577   5.597
  5.614   5.670   5.690   5.767   5.891   6.453   6.964   7.152
  7.183   7.193   7.467   7.589  24.044  24.097  24.169  24.261
 24.319  49.798
 --------------------------------------------------------------
 
          Ground-State Mulliken Net Atomic Charges

     Atom                 Charge (a.u.)    Spin (a.u.)
  --------------------------------------------------------
      1 C                     0.226537      -0.087900
      2 C                    -0.202120       0.552830
      3 C                    -0.685011       0.009766
      4 O                    -0.275565       0.012959
      5 C                    -0.685586       0.615708
      6 C                    -0.783586       0.006621
      7 H                     0.262307       0.004572
      8 H                     0.275338      -0.013530
      9 H                     0.201334       0.002075
     10 H                     0.266335       0.001529
     11 H                     0.202393      -0.010924
     12 H                     0.158703      -0.082359
     13 H                     0.201438      -0.011931
     14 H                     0.200435       0.002099
     15 H                     0.211015      -0.000563
     16 H                     0.190087      -0.000853
     17 H                     0.235945      -0.000100
  --------------------------------------------------------
  Sum of atomic charges =     0.000000
  Sum of spin   charges =     1.000000

 -----------------------------------------------------------------
                    Cartesian Multipole Moments
 -----------------------------------------------------------------
    Charge (ESU x 10^10)
                 0.0000
    Dipole Moment (Debye)
         X      -1.6943      Y       0.2783      Z       0.6650
       Tot       1.8413
    Quadrupole Moments (Debye-Ang)
        XX     -46.6687     XY       2.7631     YY     -40.3996
        XZ       0.7647     YZ      -0.9081     ZZ     -38.7143
    Octapole Moments (Debye-Ang^2)
       XXX     -10.3926    XXY       6.8121    XYY       4.8133
       YYY      -7.2852    XXZ      -2.1735    XYZ      -2.6192
       YYZ       5.1153    XZZ       5.6670    YZZ      -2.7579
       ZZZ       2.5962
    Hexadecapole Moments (Debye-Ang^3)
      XXXX    -702.9123   XXXY      23.8861   XXYY    -155.5575
      XYYY      -2.0276   YYYY    -272.8812   XXXZ       1.6987
      XXYZ      -8.1031   XYYZ       3.7461   YYYZ       0.7283
      XXZZ    -122.3331   XYZZ      -0.4268   YYZZ     -61.7360
      XZZZ       6.7572   YZZZ       0.5638   ZZZZ    -107.1780
 -----------------------------------------------------------------
 Calculating analytic gradient of the SCF energy
 Gradient of Coulomb and Exchange Energy
            1           2           3           4           5           6
    1   3.6777448   0.1790699  -3.7926512 -10.2718473   3.0065329   2.3982251
    2  -1.4911028  -1.1428797  -2.1185949   4.6375395  -2.7562496   3.7836860
    3  -0.9807818   2.5039191   0.5086185   0.5149695  -0.6057213   0.0426169
            7           8           9          10          11          12
    1  -1.3933089  -0.0613841  -2.9097767   1.6437507   4.0152398   0.2098287
    2   0.8389916   1.7222768  -2.3663849   3.0879413  -0.8378546  -2.2401400
    3  -4.4205548   4.5474555   3.1942640  -3.3099105   2.0605121   0.9256979
           13          14          15          16          17
    1  -0.1074150   1.8579107   3.2235372  -1.3426375  -0.3328190
    2  -3.2419476   0.0911852   0.9160752   3.7907105  -2.6732520
    3  -3.1135087   3.3215885  -2.1260755   0.2514954  -3.3145849
 Gradient of SCF Energy
            1           2           3           4           5           6
    1   0.0021379  -0.0026336   0.0001601  -0.0020328  -0.0013912  -0.0006710
    2  -0.0002362  -0.0001401   0.0014535   0.0004005   0.0003396  -0.0007554
    3   0.0043297  -0.0027688   0.0011642   0.0008021  -0.0030636  -0.0011218
            7           8           9          10          11          12
    1  -0.0023433   0.0008936  -0.0028839   0.0013774   0.0034341   0.0008959
    2   0.0002533   0.0014705  -0.0024584   0.0026837  -0.0005667  -0.0007238
    3  -0.0046426   0.0040026   0.0033535  -0.0025274   0.0028279   0.0032261
           13          14          15          16          17
    1  -0.0001471   0.0018101   0.0038967  -0.0024892  -0.0000138
    2  -0.0031191  -0.0007596   0.0008016   0.0044249  -0.0030681
    3  -0.0036080   0.0045707  -0.0029405   0.0004072  -0.0040113
 Max gradient component =       4.643E-03
 RMS gradient           =       2.436E-03
 Gradient time:  CPU 97.49 s  wall 118.30 s
 Geometry Optimization Parameters
   NAtoms,    NIC,     NZ,  NCons,   NDum,   NFix, NCnnct, MaxDiis
       17     128       0       0       0       0       0       0

 Cartesian Hessian Update
 Hessian Updated using Powell/Murtagh-Sargent Update
  Mixing factors:     0.000249 Powell
                      0.999751 Murtagh-Sargent


** GEOMETRY OPTIMIZATION IN DELOCALIZED INTERNAL COORDINATES **
   Searching for a Transition State

   Optimization Cycle:   2

                       Coordinates (Angstroms)
     ATOM              X           Y           Z
      1  C        -0.853432   -0.084949    0.344981
      2  C         0.238622    0.308545   -0.655018
      3  C         1.623275    0.525557   -0.122269
      4  O         2.275067   -0.696962    0.204928
      5  C        -1.520326    1.283421    0.226516
      6  C        -1.723812   -1.252782   -0.086113
      7  H        -0.452675   -0.263367    1.345469
      8  H         0.165119   -0.147502   -1.639856
      9  H         2.256950    1.005826   -0.864681
     10  H         1.741515   -1.164729    0.851808
     11  H        -2.460877    1.327576   -0.313306
     12  H        -0.462142    1.505473   -0.658713
     13  H        -1.417569    1.979409    1.050715
     14  H        -2.122508   -1.073450   -1.086138
     15  H        -2.566992   -1.386926    0.591130
     16  H        -1.154221   -2.181328   -0.114918
     17  H         1.583090    1.178309    0.757926
   Point Group: c1    Number of degrees of freedom:    45


   Energy is   -272.135985451

 GETINT wrote B to file, NVib is           45
 Hessian Updated using Powell/Murtagh-Sargent Update
  Mixing factors:     0.966734 Powell
                      0.033266 Murtagh-Sargent

 43 Hessian modes will be used to form the next step
  Hessian Eigenvalues:
     0.001110    0.006692    0.009279    0.012545    0.026994    0.029396
     0.039360    0.039374    0.040497    0.051259    0.054338    0.056723
     0.058322    0.060448    0.066437    0.081672    0.092157    0.105436
     0.108639    0.113210    0.117028    0.139618    0.149040    0.152215
     0.157882    0.159988    0.160000    0.220359    0.267279    0.274218
     0.304747    0.324530    0.340865    0.345543    0.346715    0.348591
     0.348670    0.350853    0.350873    0.353738    0.355769    0.419461
     0.554539
**WARNING** Hessian does not have the Desired Local Structure

 Transition State Search - Taking P-RFO Step
 Searching for Lamda that Maximizes Along the Lowest mode
 Value Taken    Lamda =   0.00142001
 Searching for Lamda that Minimizes Along All other modes
 Value Taken    Lamda =  -0.00107676
 Calculated Step too Large.  Step scaled by  0.140155
 Step Taken.  Stepsize is  0.300000

                             Maximum     Tolerance    Cnvgd?
         Gradient           0.007956      0.000300      NO
         Displacement       0.118264      0.001200      NO
         Energy change      0.000193      0.000001      NO


 New Cartesian Coordinates Obtained by Inverse Iteration

 Displacement from previous Coordinates is:  0.397661
 ----------------------------------------------------
       Standard Nuclear Orientation (Angstroms)
    I     Atom         X            Y            Z
 ----------------------------------------------------
    1      C      -0.858115    -0.064041     0.345928
    2      C       0.237617     0.338196    -0.647618
    3      C       1.633223     0.507981    -0.122534
    4      O       2.258757    -0.738398     0.167366
    5      C      -1.545153     1.293652     0.210723
    6      C      -1.703789    -1.259774    -0.065393
    7      H      -0.455713    -0.214961     1.351090
    8      H       0.144364    -0.087200    -1.645069
    9      H       2.272362     0.993158    -0.858690
   10      H       1.720849    -1.211045     0.807830
   11      H      -2.452726     1.325195    -0.384899
   12      H      -0.445941     1.545629    -0.616990
   13      H      -1.507962     1.980815     1.049502
   14      H      -2.104090    -1.106866    -1.070177
   15      H      -2.546690    -1.400485     0.612695
   16      H      -1.114914    -2.178066    -0.077004
   17      H       1.617005     1.138327     0.775698
 ----------------------------------------------------
 Molecular Point Group                 C1    NOp =  1
 Largest Abelian Subgroup              C1    NOp =  1
 Nuclear Repulsion Energy =   248.2303719912 hartrees
 There are       25 alpha and       24 beta electrons
 Applying Cartesian multipole field
    Component          Value
    ---------          -----
     (2,0,0)        1.00000E-11
     (0,2,0)        2.00000E-11
     (0,0,2)       -3.00000E-11
 Nucleus-field energy     =     0.0000000063 hartrees
 Requested basis set is non-standard
 There are 138 shells and 314 basis functions
 A cutoff of  1.0D-11 yielded   9038 shell pairs
 There are     46572 function pairs (     55942 Cartesian)
 Smallest overlap matrix eigenvalue = 1.39E-05
 Guess MOs from SCF MO coefficient file
Reading MOs from coefficient file
Reading MOs from coefficient file
 An unrestricted hybrid HF-DFT SCF calculation will be
 performed using Pulay DIIS extrapolation
 Exchange:     0.5679 Hartree-Fock + 1.0000 M08SO
 SCF converges when DIIS error is below 1.0E-08
Geometry optimization detected.  Setting ReadMinima to 0
Setting SaveMinima to 0
 Inaccurate integrated density:
   Number of electrons =    49
   Numerical integral  =    48.980951027483
   Relative error      =    -0.0388754541 %
 ---------------------------------------
  Cycle       Energy         DIIS Error
 ---------------------------------------
    1    -272.1254205071      5.14E-04
    2    -272.1357337305      7.10E-05
    3    -272.1358662629      4.04E-05
    4    -272.1358912774      1.37E-05
    5    -272.1358959892      3.54E-06
    6    -272.1358963474      1.48E-06
    7    -272.1358964194      5.64E-07
    8    -272.1358964342      2.18E-07
    9    -272.1358964356      6.97E-08
   10    -272.1358964359      2.19E-08
   11    -272.1358964358      8.86E-09 Convergence criterion met
 ---------------------------------------
 <S^2> = 0.7608
 SCF time:  CPU 725.66 s  wall 898.96 s
 SCF   energy in the final basis set = -272.1358964358
 Total energy in the final basis set = -272.1358964358
 Analysis of SCF Wavefunction
 
 --------------------------------------------------------------
                    Orbital Energies (a.u.)
 --------------------------------------------------------------
 
 Alpha MOs
 -- Occupied --
-19.564 -10.545 -10.511 -10.510 -10.507 -10.490  -1.138  -0.937
 -0.825  -0.787  -0.712  -0.655  -0.597  -0.564  -0.530  -0.526
 -0.500  -0.474  -0.473  -0.437  -0.415  -0.391  -0.383  -0.366
 -0.229
 -- Virtual --
 -0.027  -0.015  -0.012  -0.005   0.012   0.017   0.019   0.019
  0.028   0.047   0.051   0.060   0.065   0.078   0.084   0.091
  0.095   0.111   0.118   0.121   0.123   0.126   0.130   0.137
  0.145   0.151   0.154   0.161   0.163   0.174   0.180   0.190
  0.202   0.210   0.224   0.230   0.231   0.241   0.257   0.262
  0.271   0.289   0.304   0.312   0.315   0.325   0.333   0.352
  0.366   0.379   0.400   0.435   0.439   0.445   0.455   0.467
  0.497   0.509   0.520   0.526   0.545   0.563   0.567   0.572
  0.582   0.585   0.597   0.606   0.613   0.619   0.624   0.627
  0.639   0.641   0.658   0.676   0.690   0.695   0.706   0.720
  0.748   0.780   0.787   0.805   0.853   0.871   0.891   0.918
  0.938   0.944   0.960   0.987   0.995   1.002   1.023   1.040
  1.061   1.072   1.093   1.109   1.130   1.141   1.154   1.158
  1.183   1.188   1.206   1.226   1.233   1.247   1.261   1.292
  1.297   1.314   1.322   1.328   1.333   1.358   1.362   1.380
  1.382   1.396   1.406   1.413   1.439   1.448   1.459   1.467
  1.494   1.505   1.513   1.540   1.552   1.558   1.571   1.576
  1.597   1.612   1.633   1.643   1.662   1.708   1.765   1.794
  1.962   2.070   2.122   2.269   2.291   2.407   2.435   2.449
  2.467   2.497   2.577   2.598   2.632   2.656   2.669   2.684
  2.719   2.743   2.785   2.795   2.810   2.861   2.879   2.921
  2.936   2.953   2.963   2.986   3.000   3.005   3.052   3.062
  3.078   3.101   3.111   3.138   3.143   3.182   3.184   3.201
  3.211   3.240   3.280   3.288   3.311   3.318   3.340   3.358
  3.384   3.397   3.410   3.438   3.459   3.482   3.495   3.545
  3.551   3.563   3.590   3.613   3.638   3.654   3.669   3.697
  3.719   3.737   3.752   3.760   3.776   3.781   3.821   3.863
  3.883   3.898   3.930   3.950   3.964   4.004   4.019   4.029
  4.044   4.048   4.080   4.092   4.131   4.140   4.167   4.179
  4.189   4.204   4.234   4.243   4.258   4.290   4.313   4.336
  4.346   4.404   4.414   4.436   4.444   4.455   4.458   4.476
  4.502   4.545   4.565   4.593   4.742   4.761   4.796   4.834
  4.869   4.974   5.049   5.147   5.178   5.199   5.253   5.353
  5.416   5.430   5.475   5.488   5.501   5.530   5.564   5.596
  5.660   5.677   5.758   5.888   6.453   6.963   7.147   7.181
  7.191   7.467   7.588  24.031  24.082  24.161  24.250  24.302
 49.796
 
 Beta MOs
 -- Occupied --
-19.563 -10.545 -10.512 -10.498 -10.495 -10.490  -1.134  -0.929
 -0.822  -0.778  -0.704  -0.650  -0.595  -0.550  -0.522  -0.516
 -0.498  -0.472  -0.468  -0.431  -0.415  -0.385  -0.373  -0.361
 -- Virtual --
 -0.036  -0.030  -0.017  -0.014  -0.002   0.009   0.013   0.015
  0.017   0.023   0.045   0.047   0.057   0.062   0.076   0.083
  0.086   0.093   0.109   0.117   0.119   0.121   0.121   0.128
  0.135   0.141   0.149   0.152   0.158   0.161   0.178   0.183
  0.192   0.203   0.212   0.225   0.229   0.233   0.240   0.258
  0.264   0.272   0.294   0.307   0.312   0.315   0.326   0.334
  0.359   0.370   0.382   0.402   0.436   0.441   0.448   0.455
  0.468   0.498   0.515   0.525   0.535   0.551   0.567   0.568
  0.575   0.586   0.592   0.602   0.614   0.618   0.626   0.629
  0.636   0.648   0.649   0.674   0.679   0.695   0.702   0.709
  0.728   0.755   0.785   0.790   0.809   0.857   0.874   0.895
  0.922   0.942   0.949   0.963   0.989   0.999   1.006   1.027
  1.042   1.065   1.079   1.096   1.111   1.133   1.147   1.157
  1.164   1.185   1.193   1.212   1.230   1.243   1.252   1.271
  1.297   1.305   1.319   1.329   1.333   1.338   1.367   1.371
  1.387   1.393   1.404   1.412   1.419   1.445   1.454   1.464
  1.473   1.502   1.511   1.528   1.546   1.561   1.566   1.579
  1.582   1.607   1.620   1.645   1.656   1.668   1.717   1.772
  1.803   1.965   2.078   2.124   2.271   2.292   2.428   2.450
  2.460   2.475   2.510   2.591   2.608   2.645   2.681   2.707
  2.730   2.747   2.767   2.809   2.817   2.853   2.893   2.912
  2.930   2.960   2.988   2.994   3.012   3.023   3.053   3.070
  3.084   3.113   3.128   3.139   3.155   3.173   3.194   3.201
  3.211   3.229   3.262   3.298   3.320   3.324   3.346   3.361
  3.381   3.407   3.430   3.433   3.453   3.492   3.513   3.533
  3.557   3.569   3.584   3.616   3.644   3.651   3.671   3.685
  3.709   3.733   3.751   3.759   3.772   3.784   3.800   3.848
  3.881   3.896   3.932   3.948   3.963   3.969   4.006   4.019
  4.036   4.047   4.058   4.091   4.104   4.142   4.149   4.184
  4.186   4.199   4.220   4.251   4.260   4.283   4.308   4.335
  4.351   4.362   4.425   4.428   4.456   4.470   4.485   4.489
  4.494   4.535   4.563   4.580   4.613   4.743   4.799   4.851
  4.880   4.938   5.006   5.109   5.166   5.178   5.207   5.298
  5.361   5.447   5.478   5.509   5.531   5.564   5.574   5.592
  5.610   5.666   5.690   5.764   5.889   6.450   6.963   7.149
  7.182   7.192   7.467   7.588  24.039  24.092  24.163  24.254
 24.311  49.797
 --------------------------------------------------------------
 
          Ground-State Mulliken Net Atomic Charges

     Atom                 Charge (a.u.)    Spin (a.u.)
  --------------------------------------------------------
      1 C                     0.163632      -0.086600
      2 C                    -0.171238       0.552506
      3 C                    -0.687768       0.009836
      4 O                    -0.276869       0.013863
      5 C                    -0.654720       0.615848
      6 C                    -0.764213       0.005689
      7 H                     0.265629       0.004362
      8 H                     0.276734      -0.015058
      9 H                     0.201763       0.001694
     10 H                     0.267444       0.001297
     11 H                     0.198730      -0.012553
     12 H                     0.151800      -0.082629
     13 H                     0.201838      -0.009963
     14 H                     0.197547       0.002329
     15 H                     0.208905      -0.000380
     16 H                     0.185292      -0.000595
     17 H                     0.235496       0.000355
  --------------------------------------------------------
  Sum of atomic charges =     0.000000
  Sum of spin   charges =     1.000000

 -----------------------------------------------------------------
                    Cartesian Multipole Moments
 -----------------------------------------------------------------
    Charge (ESU x 10^10)
                 0.0000
    Dipole Moment (Debye)
         X      -1.6766      Y       0.2965      Z       0.6918
       Tot       1.8378
    Quadrupole Moments (Debye-Ang)
        XX     -46.5688     XY       2.8394     YY     -40.4965
        XZ       0.8742     YZ      -0.9561     ZZ     -38.7143
    Octapole Moments (Debye-Ang^2)
       XXX      -9.2454    XXY       7.1994    XYY       4.6942
       YYY      -7.5288    XXZ      -1.7894    XYZ      -2.7267
       YYZ       5.3697    XZZ       5.3722    YZZ      -2.4722
       ZZZ       2.8142
    Hexadecapole Moments (Debye-Ang^3)
      XXXX    -701.6146   XXXY      28.7606   XXYY    -156.5473
      XYYY       1.1407   YYYY    -277.5536   XXXZ       4.8112
      XXYZ      -7.6771   XYYZ       4.3641   YYYZ       1.4000
      XXZZ    -121.6427   XYZZ       0.7323   YYZZ     -62.3621
      XZZZ       8.5369   YZZZ       1.6855   ZZZZ    -105.6875
 -----------------------------------------------------------------
 Calculating analytic gradient of the SCF energy
 Gradient of Coulomb and Exchange Energy
            1           2           3           4           5           6
    1   3.6796455   0.2735209  -3.8577977 -10.1742951   2.9554715   2.3455008
    2  -1.5712862  -1.3033477  -2.0892248   4.7975326  -2.7612332   3.7704263
    3  -0.7933007   2.2282014   0.5035725   0.7164081  -0.6406713   0.0027845
            7           8           9          10          11          12
    1  -1.4212950  -0.0040463  -2.9219160   1.6865583   3.9064172   0.1420257
    2   0.7597988   1.6082564  -2.3739186   3.1249251  -0.7962890  -2.2941514
    3  -4.4643455   4.5842911   3.1418875  -3.2506270   2.2770051   0.8498599
           13          14          15          16          17
    1   0.1206119   1.8623535   3.2177797  -1.3962235  -0.4143113
    2  -3.1758829   0.1734476   0.9417040   3.7700060  -2.5807630
    3  -3.1438415   3.3366712  -2.1390511   0.1749639  -3.3838083
 Gradient of SCF Energy
            1           2           3           4           5           6
    1   0.0025098  -0.0031032   0.0003591  -0.0016564  -0.0016543  -0.0008733
    2   0.0004050  -0.0004011   0.0014346   0.0003575   0.0000377  -0.0011868
    3   0.0043655  -0.0034984   0.0009566   0.0008062  -0.0039701  -0.0010177
            7           8           9          10          11          12
    1  -0.0020953   0.0009672  -0.0024362   0.0012354   0.0027155   0.0012800
    2   0.0001700   0.0009543  -0.0020632   0.0022740  -0.0005602  -0.0002522
    3  -0.0042829   0.0037500   0.0028768  -0.0021153   0.0029103   0.0041262
           13          14          15          16          17
    1   0.0003017   0.0015918   0.0032424  -0.0022663  -0.0001179
    2  -0.0023614  -0.0005263   0.0006268   0.0036540  -0.0025626
    3  -0.0031002   0.0040057  -0.0025538   0.0002604  -0.0035192
 Max gradient component =       4.365E-03
 RMS gradient           =       2.293E-03
 Gradient time:  CPU 97.95 s  wall 118.95 s
 Geometry Optimization Parameters
   NAtoms,    NIC,     NZ,  NCons,   NDum,   NFix, NCnnct, MaxDiis
       17     128       0       0       0       0       0       0

 Cartesian Hessian Update
 Hessian Updated using Powell/Murtagh-Sargent Update
  Mixing factors:     0.982457 Powell
                      0.017543 Murtagh-Sargent


** GEOMETRY OPTIMIZATION IN DELOCALIZED INTERNAL COORDINATES **
   Searching for a Transition State

   Optimization Cycle:   3

                       Coordinates (Angstroms)
     ATOM              X           Y           Z
      1  C        -0.858115   -0.064041    0.345928
      2  C         0.237617    0.338196   -0.647618
      3  C         1.633223    0.507981   -0.122534
      4  O         2.258757   -0.738398    0.167366
      5  C        -1.545153    1.293652    0.210723
      6  C        -1.703789   -1.259774   -0.065393
      7  H        -0.455713   -0.214961    1.351090
      8  H         0.144364   -0.087200   -1.645069
      9  H         2.272362    0.993158   -0.858690
     10  H         1.720849   -1.211045    0.807830
     11  H        -2.452726    1.325195   -0.384899
     12  H        -0.445941    1.545629   -0.616990
     13  H        -1.507962    1.980815    1.049502
     14  H        -2.104090   -1.106866   -1.070177
     15  H        -2.546690   -1.400485    0.612695
     16  H        -1.114914   -2.178066   -0.077004
     17  H         1.617005    1.138327    0.775698
   Point Group: c1    Number of degrees of freedom:    45


   Energy is   -272.135896436

 GETINT wrote B to file, NVib is           45
 Hessian Updated using Powell/Murtagh-Sargent Update
  Mixing factors:     0.992605 Powell
                      0.007395 Murtagh-Sargent

 44 Hessian modes will be used to form the next step
  Hessian Eigenvalues:
     0.000460    0.006692    0.009276    0.012546    0.026993    0.029397
     0.039316    0.039374    0.040493    0.051261    0.054341    0.056724
     0.058322    0.060448    0.066432    0.081671    0.092141    0.105427
     0.108639    0.113197    0.117028    0.139617    0.149038    0.152211
     0.157877    0.159983    0.160000    0.160003    0.220353    0.267279
     0.274219    0.304689    0.324524    0.340865    0.345515    0.346712
     0.348594    0.348672    0.350855    0.350860    0.353733    0.355770
     0.419461    0.554540
**WARNING** Hessian does not have the Desired Local Structure

 Transition State Search - Taking P-RFO Step
 Searching for Lamda that Maximizes Along the Lowest mode
 Value Taken    Lamda =   0.00100044
 Searching for Lamda that Minimizes Along All other modes
 Value Taken    Lamda =  -0.00086170
 Calculated Step too Large.  Step scaled by  0.219940
 Step Taken.  Stepsize is  0.300000

                             Maximum     Tolerance    Cnvgd?
         Gradient           0.006780      0.000300      NO
         Displacement       0.119013      0.001200      NO
         Energy change      0.000089      0.000001      NO


 New Cartesian Coordinates Obtained by Inverse Iteration

 Displacement from previous Coordinates is:  0.410255
 ----------------------------------------------------
       Standard Nuclear Orientation (Angstroms)
    I     Atom         X            Y            Z
 ----------------------------------------------------
    1      C      -0.862891    -0.043412     0.346535
    2      C       0.237068     0.369628    -0.639040
    3      C       1.642122     0.489482    -0.122672
    4      O       2.236995    -0.780983     0.128798
    5      C      -1.569504     1.303326     0.195746
    6      C      -1.681167    -1.266117    -0.044040
    7      H      -0.458790    -0.165465     1.356773
    8      H       0.124163    -0.021490    -1.649779
    9      H       2.287765     0.977857    -0.853075
   10      H       1.693447    -1.256718     0.763189
   11      H      -2.438834     1.325526    -0.456756
   12      H      -0.434448     1.583431    -0.577521
   13      H      -1.600579     1.977989     1.046485
   14      H      -2.083526    -1.140977    -1.053390
   15      H      -2.522773    -1.414015     0.636309
   16      H      -1.071060    -2.172298    -0.038358
   17      H       1.651095     1.096354     0.793257
 ----------------------------------------------------
 Molecular Point Group                 C1    NOp =  1
 Largest Abelian Subgroup              C1    NOp =  1
 Nuclear Repulsion Energy =   248.0020107814 hartrees
 There are       25 alpha and       24 beta electrons
 Applying Cartesian multipole field
    Component          Value
    ---------          -----
     (2,0,0)        1.00000E-11
     (0,2,0)        2.00000E-11
     (0,0,2)       -3.00000E-11
 Nucleus-field energy     =     0.0000000064 hartrees
 Requested basis set is non-standard
 There are 138 shells and 314 basis functions
 A cutoff of  1.0D-11 yielded   9038 shell pairs
 There are     46538 function pairs (     55899 Cartesian)
 Smallest overlap matrix eigenvalue = 1.43E-05
 Guess MOs from SCF MO coefficient file
Reading MOs from coefficient file
Reading MOs from coefficient file
 An unrestricted hybrid HF-DFT SCF calculation will be
 performed using Pulay DIIS extrapolation
 Exchange:     0.5679 Hartree-Fock + 1.0000 M08SO
 SCF converges when DIIS error is below 1.0E-08
Geometry optimization detected.  Setting ReadMinima to 0
Setting SaveMinima to 0
 Inaccurate integrated density:
   Number of electrons =    49
   Numerical integral  =    48.979623714658
   Relative error      =    -0.0415842558 %
 ---------------------------------------
  Cycle       Energy         DIIS Error
 ---------------------------------------
    1    -272.1250583203      5.41E-04
    2    -272.1356622214      7.29E-05
    3    -272.1358059972      4.10E-05
    4    -272.1358317845      1.47E-05
    5    -272.1358370428      4.01E-06
    6    -272.1358374671      1.75E-06
    7    -272.1358375623      6.07E-07
    8    -272.1358375828      2.36E-07
    9    -272.1358375854      8.41E-08
   10    -272.1358375859      3.31E-08
   11    -272.1358375862      1.67E-08
   12    -272.1358375862      8.62E-09 Convergence criterion met
 ---------------------------------------
 <S^2> = 0.7608
 SCF time:  CPU 794.38 s  wall 983.80 s
 SCF   energy in the final basis set = -272.1358375862
 Total energy in the final basis set = -272.1358375862
 Analysis of SCF Wavefunction
 
 --------------------------------------------------------------
                    Orbital Energies (a.u.)
 --------------------------------------------------------------
 
 Alpha MOs
 -- Occupied --
-19.565 -10.545 -10.511 -10.510 -10.508 -10.490  -1.137  -0.937
 -0.825  -0.787  -0.711  -0.655  -0.597  -0.563  -0.529  -0.526
 -0.499  -0.474  -0.473  -0.437  -0.414  -0.391  -0.383  -0.366
 -0.230
 -- Virtual --
 -0.027  -0.015  -0.012  -0.005   0.011   0.017   0.018   0.019
  0.028   0.047   0.051   0.060   0.065   0.077   0.086   0.091
  0.093   0.112   0.119   0.121   0.122   0.126   0.129   0.136
  0.144   0.151   0.154   0.161   0.163   0.173   0.180   0.189
  0.202   0.209   0.223   0.226   0.232   0.239   0.257   0.264
  0.273   0.290   0.304   0.311   0.316   0.324   0.331   0.353
  0.364   0.381   0.399   0.433   0.439   0.444   0.456   0.466
  0.493   0.512   0.520   0.526   0.547   0.562   0.567   0.572
  0.581   0.584   0.596   0.606   0.613   0.618   0.625   0.631
  0.639   0.641   0.657   0.673   0.691   0.692   0.708   0.720
  0.748   0.776   0.788   0.812   0.851   0.873   0.888   0.915
  0.938   0.945   0.957   0.986   0.994   1.005   1.024   1.039
  1.065   1.069   1.092   1.107   1.130   1.143   1.153   1.159
  1.179   1.187   1.203   1.228   1.233   1.246   1.259   1.290
  1.294   1.311   1.322   1.327   1.333   1.354   1.359   1.376
  1.383   1.402   1.409   1.413   1.437   1.448   1.459   1.469
  1.493   1.504   1.510   1.545   1.547   1.559   1.570   1.577
  1.589   1.613   1.627   1.646   1.658   1.709   1.770   1.803
  1.962   2.069   2.122   2.269   2.291   2.408   2.433   2.452
  2.466   2.492   2.579   2.592   2.634   2.655   2.672   2.684
  2.719   2.742   2.786   2.795   2.810   2.860   2.883   2.921
  2.936   2.944   2.963   2.988   2.993   3.003   3.052   3.060
  3.079   3.100   3.110   3.139   3.144   3.178   3.189   3.204
  3.208   3.247   3.276   3.281   3.312   3.316   3.343   3.362
  3.389   3.398   3.412   3.436   3.459   3.471   3.494   3.542
  3.551   3.566   3.591   3.605   3.642   3.653   3.669   3.694
  3.716   3.736   3.754   3.761   3.770   3.779   3.811   3.868
  3.880   3.899   3.932   3.944   3.953   4.003   4.011   4.024
  4.037   4.049   4.069   4.096   4.125   4.133   4.165   4.178
  4.185   4.205   4.232   4.246   4.254   4.292   4.313   4.331
  4.342   4.401   4.410   4.430   4.444   4.450   4.455   4.475
  4.495   4.536   4.562   4.590   4.738   4.758   4.792   4.834
  4.865   4.969   5.042   5.146   5.177   5.198   5.255   5.351
  5.409   5.424   5.470   5.483   5.498   5.528   5.560   5.590
  5.655   5.675   5.755   5.886   6.450   6.963   7.143   7.180
  7.190   7.467   7.587  24.025  24.077  24.153  24.244  24.294
 49.795
 
 Beta MOs
 -- Occupied --
-19.563 -10.545 -10.512 -10.499 -10.496 -10.490  -1.134  -0.928
 -0.821  -0.778  -0.703  -0.650  -0.594  -0.549  -0.521  -0.516
 -0.497  -0.472  -0.468  -0.431  -0.414  -0.385  -0.373  -0.361
 -- Virtual --
 -0.036  -0.030  -0.017  -0.014  -0.003   0.009   0.013   0.015
  0.017   0.023   0.045   0.048   0.057   0.062   0.076   0.084
  0.085   0.091   0.110   0.117   0.119   0.120   0.122   0.127
  0.135   0.140   0.150   0.151   0.159   0.161   0.177   0.183
  0.191   0.202   0.212   0.223   0.227   0.233   0.239   0.259
  0.266   0.273   0.294   0.307   0.312   0.315   0.326   0.332
  0.361   0.368   0.384   0.401   0.436   0.439   0.447   0.456
  0.467   0.495   0.518   0.524   0.534   0.553   0.566   0.569
  0.575   0.585   0.591   0.601   0.613   0.621   0.626   0.627
  0.639   0.649   0.650   0.672   0.677   0.693   0.700   0.711
  0.728   0.754   0.783   0.790   0.816   0.854   0.877   0.892
  0.918   0.942   0.949   0.960   0.988   0.999   1.009   1.028
  1.041   1.068   1.076   1.095   1.110   1.134   1.149   1.156
  1.165   1.183   1.190   1.209   1.233   1.243   1.251   1.269
  1.295   1.301   1.318   1.330   1.331   1.337   1.362   1.370
  1.386   1.389   1.409   1.416   1.420   1.444   1.453   1.465
  1.475   1.502   1.511   1.524   1.552   1.556   1.567   1.580
  1.582   1.602   1.619   1.638   1.659   1.666   1.718   1.777
  1.811   1.965   2.078   2.124   2.271   2.292   2.430   2.449
  2.460   2.474   2.505   2.593   2.601   2.647   2.680   2.711
  2.731   2.747   2.766   2.809   2.820   2.850   2.891   2.915
  2.930   2.961   2.979   2.995   3.013   3.017   3.045   3.068
  3.082   3.112   3.125   3.139   3.157   3.172   3.195   3.202
  3.217   3.226   3.271   3.299   3.309   3.325   3.353   3.357
  3.385   3.412   3.430   3.434   3.452   3.493   3.502   3.533
  3.552   3.574   3.587   3.614   3.639   3.657   3.669   3.684
  3.706   3.733   3.750   3.758   3.771   3.779   3.798   3.838
  3.883   3.894   3.930   3.948   3.956   3.964   4.002   4.012
  4.036   4.042   4.058   4.081   4.107   4.133   4.144   4.181
  4.184   4.195   4.222   4.251   4.256   4.283   4.309   4.336
  4.346   4.360   4.417   4.429   4.451   4.466   4.485   4.488
  4.492   4.529   4.551   4.578   4.612   4.743   4.797   4.845
  4.880   4.936   4.998   5.104   5.163   5.177   5.206   5.300
  5.360   5.442   5.472   5.501   5.528   5.560   5.568   5.589
  5.604   5.662   5.689   5.762   5.887   6.447   6.963   7.145
  7.181   7.192   7.467   7.587  24.034  24.087  24.155  24.248
 24.302  49.795
 --------------------------------------------------------------
 
          Ground-State Mulliken Net Atomic Charges

     Atom                 Charge (a.u.)    Spin (a.u.)
  --------------------------------------------------------
      1 C                     0.110728      -0.086120
      2 C                    -0.150951       0.551627
      3 C                    -0.687333       0.009733
      4 O                    -0.278560       0.014757
      5 C                    -0.626093       0.618131
      6 C                    -0.745436       0.004847
      7 H                     0.268491       0.004322
      8 H                     0.278521      -0.016587
      9 H                     0.201908       0.001326
     10 H                     0.268214       0.001104
     11 H                     0.196798      -0.014205
     12 H                     0.146275      -0.083469
     13 H                     0.201641      -0.008303
     14 H                     0.194584       0.002561
     15 H                     0.206797      -0.000216
     16 H                     0.179795      -0.000316
     17 H                     0.234620       0.000809
  --------------------------------------------------------
  Sum of atomic charges =     0.000000
  Sum of spin   charges =     1.000000

 -----------------------------------------------------------------
                    Cartesian Multipole Moments
 -----------------------------------------------------------------
    Charge (ESU x 10^10)
                 0.0000
    Dipole Moment (Debye)
         X      -1.6552      Y       0.3175      Z       0.7170
       Tot       1.8315
    Quadrupole Moments (Debye-Ang)
        XX     -46.4415     XY       2.9101     YY     -40.6215
        XZ       0.9750     YZ      -1.0152     ZZ     -38.7089
    Octapole Moments (Debye-Ang^2)
       XXX      -7.8622    XXY       7.5958    XYY       4.5353
       YYY      -7.7876    XXZ      -1.3757    XYZ      -2.8302
       YYZ       5.5867    XZZ       5.0614    YZZ      -2.1492
       ZZZ       3.0075
    Hexadecapole Moments (Debye-Ang^3)
      XXXX    -698.6043   XXXY      33.5628   XXYY    -157.3933
      XYYY       4.4559   YYYY    -282.5699   XXXZ       7.7661
      XXYZ      -7.1583   XYYZ       4.9909   YYYZ       2.0467
      XXZZ    -120.6885   XYZZ       1.9096   YYZZ     -63.0525
      XZZZ      10.3997   YZZZ       2.7284   ZZZZ    -104.3754
 -----------------------------------------------------------------
 Calculating analytic gradient of the SCF energy
 Gradient of Coulomb and Exchange Energy
            1           2           3           4           5           6
    1   3.6809838   0.3029318  -3.9000993 -10.0780893   2.9152588   2.3048833
    2  -1.6470568  -1.4673160  -2.0535483   4.9676681  -2.7671626   3.7515706
    3  -0.5575612   1.9084987   0.4877939   0.9276311  -0.7201967  -0.0341018
            7           8           9          10          11          12
    1  -1.4454702   0.0595062  -2.9374224   1.7372442   3.7656620   0.1141655
    2   0.6734682   1.4668830  -2.3717777   3.1532525  -0.7697123  -2.3255269
    3  -4.5076037   4.6247342   3.0950924  -3.1964903   2.5052916   0.8056697
           13          14          15          16          17
    1   0.3586562   1.8708723   3.2094074  -1.4555866  -0.5029037
    2  -3.0960576   0.2624703   0.9656914   3.7409073  -2.4837530
    3  -3.1760518   3.3533446  -2.1579206   0.0960915  -3.4542215
 Gradient of SCF Energy
            1           2           3           4           5           6
    1   0.0021147  -0.0027097   0.0002888  -0.0012054  -0.0012282  -0.0007013
    2   0.0002788  -0.0006230   0.0011211   0.0003311   0.0000995  -0.0011491
    3   0.0037212  -0.0034937   0.0007915   0.0006817  -0.0043194  -0.0006815
            7           8           9          10          11          12
    1  -0.0015975   0.0008754  -0.0019556   0.0010012   0.0018920   0.0008991
    2   0.0001680   0.0005371  -0.0016095   0.0018023  -0.0004799   0.0001426
    3  -0.0034528   0.0030412   0.0022250  -0.0016272   0.0025846   0.0044624
           13          14          15          16          17
    1   0.0005647   0.0012523   0.0025294  -0.0018476  -0.0001722
    2  -0.0017202  -0.0003049   0.0005319   0.0028322  -0.0019580
    3  -0.0024367   0.0031371  -0.0020015   0.0001703  -0.0028023
 Max gradient component =       4.462E-03
 RMS gradient           =       1.949E-03
 Gradient time:  CPU 96.59 s  wall 118.10 s
 Geometry Optimization Parameters
   NAtoms,    NIC,     NZ,  NCons,   NDum,   NFix, NCnnct, MaxDiis
       17     128       0       0       0       0       0       0

 Cartesian Hessian Update
 Hessian Updated using Powell/Murtagh-Sargent Update
  Mixing factors:     0.995707 Powell
                      0.004293 Murtagh-Sargent


** GEOMETRY OPTIMIZATION IN DELOCALIZED INTERNAL COORDINATES **
   Searching for a Transition State

   Optimization Cycle:   4

                       Coordinates (Angstroms)
     ATOM              X           Y           Z
      1  C        -0.862891   -0.043412    0.346535
      2  C         0.237068    0.369628   -0.639040
      3  C         1.642122    0.489482   -0.122672
      4  O         2.236995   -0.780983    0.128798
      5  C        -1.569504    1.303326    0.195746
      6  C        -1.681167   -1.266117   -0.044040
      7  H        -0.458790   -0.165465    1.356773
      8  H         0.124163   -0.021490   -1.649779
      9  H         2.287765    0.977857   -0.853075
     10  H         1.693447   -1.256718    0.763189
     11  H        -2.438834    1.325526   -0.456756
     12  H        -0.434448    1.583431   -0.577521
     13  H        -1.600579    1.977989    1.046485
     14  H        -2.083526   -1.140977   -1.053390
     15  H        -2.522773   -1.414015    0.636309
     16  H        -1.071060   -2.172298   -0.038358
     17  H         1.651095    1.096354    0.793257
   Point Group: c1    Number of degrees of freedom:    45


   Energy is   -272.135837586

 GETINT wrote B to file, NVib is           45
 Hessian Updated using Powell/Murtagh-Sargent Update
  Mixing factors:     0.993353 Powell
                      0.006647 Murtagh-Sargent

 45 Hessian modes will be used to form the next step
  Hessian Eigenvalues:
     0.000231    0.006691    0.009270    0.012546    0.026994    0.029398
     0.039234    0.039373    0.040477    0.051261    0.054331    0.056724
     0.058321    0.060448    0.066390    0.081667    0.092128    0.105405
     0.108638    0.113159    0.117028    0.139617    0.149004    0.152206
     0.157851    0.159983    0.159999    0.160000    0.160003    0.220341
     0.267274    0.274218    0.304691    0.324525    0.340863    0.345506
     0.346712    0.348593    0.348671    0.350852    0.350857    0.353730
     0.355772    0.419461    0.554539
**WARNING** Hessian does not have the Desired Local Structure

 Transition State Search - Taking P-RFO Step
 Searching for Lamda that Maximizes Along the Lowest mode
 Value Taken    Lamda =   0.00078856
 Searching for Lamda that Minimizes Along All other modes
 Value Taken    Lamda =  -0.00061204
 Calculated Step too Large.  Step scaled by  0.251618
 Step Taken.  Stepsize is  0.300000

                             Maximum     Tolerance    Cnvgd?
         Gradient           0.005257      0.000300      NO
         Displacement       0.118394      0.001200      NO
         Energy change      0.000059      0.000001      NO


 New Cartesian Coordinates Obtained by Inverse Iteration

 Displacement from previous Coordinates is:  0.417118
 ----------------------------------------------------
       Standard Nuclear Orientation (Angstroms)
    I     Atom         X            Y            Z
 ----------------------------------------------------
    1      C      -0.867348    -0.022946     0.347918
    2      C       0.236770     0.402405    -0.628642
    3      C       1.650216     0.470575    -0.123575
    4      O       2.210260    -0.823375     0.089535
    5      C      -1.593423     1.311759     0.181868
    6      C      -1.656614    -1.271518    -0.022457
    7      H      -0.462829    -0.116228     1.362917
    8      H       0.104224     0.047356    -1.651591
    9      H       2.303108     0.959683    -0.848935
   10      H       1.660226    -1.299835     0.718711
   11      H      -2.418938     1.326590    -0.527166
   12      H      -0.425094     1.618925    -0.538876
   13      H      -1.695350     1.971318     1.040239
   14      H      -2.060438    -1.173906    -1.035636
   15      H      -2.496507    -1.427939     0.660081
   16      H      -1.024883    -2.164200    -0.000520
   17      H       1.685704     1.053453     0.808588
 ----------------------------------------------------
 Molecular Point Group                 C1    NOp =  1
 Largest Abelian Subgroup              C1    NOp =  1
 Nuclear Repulsion Energy =   247.8647468913 hartrees
 There are       25 alpha and       24 beta electrons
 Applying Cartesian multipole field
    Component          Value
    ---------          -----
     (2,0,0)        1.00000E-11
     (0,2,0)        2.00000E-11
     (0,0,2)       -3.00000E-11
 Nucleus-field energy     =     0.0000000064 hartrees
 Requested basis set is non-standard
 There are 138 shells and 314 basis functions
 A cutoff of  1.0D-11 yielded   9041 shell pairs
 There are     46557 function pairs (     55925 Cartesian)
 Smallest overlap matrix eigenvalue = 1.47E-05
 Guess MOs from SCF MO coefficient file
Reading MOs from coefficient file
Reading MOs from coefficient file
 An unrestricted hybrid HF-DFT SCF calculation will be
 performed using Pulay DIIS extrapolation
 Exchange:     0.5679 Hartree-Fock + 1.0000 M08SO
 SCF converges when DIIS error is below 1.0E-08
Geometry optimization detected.  Setting ReadMinima to 0
Setting SaveMinima to 0
 Inaccurate integrated density:
   Number of electrons =    49
   Numerical integral  =    48.980781146732
   Relative error      =    -0.0392221495 %
 ---------------------------------------
  Cycle       Energy         DIIS Error
 ---------------------------------------
    1    -272.1255065776      5.59E-04
    2    -272.1355774062      7.33E-05
    3    -272.1357293268      3.99E-05
    4    -272.1357541232      1.60E-05
    5    -272.1357599677      4.69E-06
    6    -272.1357605246      2.00E-06
    7    -272.1357606709      6.80E-07
    8    -272.1357607083      2.84E-07
    9    -272.1357607149      1.23E-07
   10    -272.1357607165      5.40E-08
   11    -272.1357607170      2.57E-08
   12    -272.1357607170      1.09E-08
   13    -272.1357607167      2.62E-09 Convergence criterion met
 ---------------------------------------
 <S^2> = 0.7609
 SCF time:  CPU 855.76 s  wall 1061.18 s
 SCF   energy in the final basis set = -272.1357607167
 Total energy in the final basis set = -272.1357607167
 Analysis of SCF Wavefunction
 
 --------------------------------------------------------------
                    Orbital Energies (a.u.)
 --------------------------------------------------------------
 
 Alpha MOs
 -- Occupied --
-19.565 -10.545 -10.511 -10.511 -10.508 -10.491  -1.137  -0.936
 -0.824  -0.787  -0.711  -0.654  -0.597  -0.561  -0.529  -0.526
 -0.497  -0.474  -0.474  -0.438  -0.414  -0.391  -0.382  -0.366
 -0.230
 -- Virtual --
 -0.027  -0.015  -0.012  -0.005   0.011   0.017   0.018   0.020
  0.028   0.047   0.051   0.059   0.066   0.077   0.087   0.090
  0.092   0.112   0.119   0.121   0.122   0.126   0.129   0.136
  0.144   0.151   0.154   0.161   0.164   0.172   0.180   0.189
  0.202   0.209   0.221   0.223   0.234   0.238   0.258   0.266
  0.275   0.289   0.304   0.311   0.316   0.324   0.330   0.353
  0.362   0.382   0.397   0.431   0.439   0.444   0.456   0.465
  0.490   0.514   0.521   0.527   0.549   0.560   0.566   0.573
  0.580   0.583   0.595   0.606   0.611   0.618   0.626   0.635
  0.638   0.642   0.656   0.671   0.687   0.694   0.710   0.720
  0.747   0.770   0.790   0.819   0.847   0.875   0.884   0.914
  0.935   0.944   0.956   0.984   0.996   1.010   1.023   1.038
  1.066   1.070   1.089   1.106   1.130   1.146   1.154   1.160
  1.172   1.188   1.200   1.230   1.235   1.247   1.259   1.282
  1.295   1.307   1.320   1.327   1.336   1.349   1.358   1.371
  1.386   1.405   1.412   1.417   1.434   1.448   1.460   1.472
  1.492   1.501   1.510   1.536   1.552   1.560   1.572   1.577
  1.582   1.614   1.621   1.651   1.658   1.711   1.775   1.809
  1.961   2.070   2.123   2.271   2.291   2.411   2.431   2.455
  2.465   2.488   2.579   2.587   2.634   2.657   2.673   2.687
  2.718   2.741   2.786   2.792   2.814   2.859   2.887   2.919
  2.932   2.938   2.962   2.986   2.988   3.002   3.049   3.057
  3.080   3.098   3.108   3.142   3.147   3.174   3.195   3.205
  3.210   3.254   3.264   3.281   3.307   3.321   3.350   3.366
  3.394   3.401   3.413   3.434   3.457   3.466   3.493   3.536
  3.556   3.570   3.592   3.596   3.647   3.650   3.672   3.691
  3.713   3.735   3.754   3.761   3.768   3.780   3.801   3.870
  3.879   3.900   3.929   3.937   3.945   4.000   4.004   4.020
  4.033   4.048   4.059   4.099   4.118   4.131   4.161   4.177
  4.182   4.207   4.229   4.249   4.250   4.294   4.311   4.326
  4.339   4.391   4.410   4.430   4.442   4.448   4.453   4.476
  4.490   4.526   4.563   4.590   4.732   4.759   4.789   4.834
  4.860   4.963   5.037   5.145   5.177   5.198   5.259   5.349
  5.403   5.418   5.466   5.477   5.498   5.527   5.557   5.583
  5.651   5.673   5.753   5.883   6.447   6.962   7.140   7.180
  7.190   7.467   7.586  24.020  24.073  24.146  24.240  24.287
 49.794
 
 Beta MOs
 -- Occupied --
-19.563 -10.545 -10.512 -10.499 -10.496 -10.491  -1.133  -0.928
 -0.821  -0.779  -0.702  -0.650  -0.594  -0.548  -0.521  -0.516
 -0.495  -0.473  -0.469  -0.431  -0.413  -0.384  -0.372  -0.362
 -- Virtual --
 -0.036  -0.030  -0.017  -0.014  -0.003   0.009   0.013   0.015
  0.017   0.023   0.045   0.048   0.057   0.063   0.076   0.084
  0.086   0.090   0.111   0.117   0.119   0.120   0.123   0.127
  0.135   0.140   0.149   0.151   0.159   0.162   0.177   0.183
  0.191   0.202   0.212   0.220   0.225   0.234   0.239   0.260
  0.268   0.274   0.294   0.307   0.312   0.315   0.325   0.331
  0.361   0.367   0.385   0.400   0.434   0.439   0.446   0.456
  0.465   0.492   0.519   0.526   0.535   0.555   0.565   0.569
  0.575   0.583   0.590   0.600   0.612   0.624   0.626   0.628
  0.642   0.649   0.652   0.670   0.675   0.690   0.701   0.714
  0.729   0.752   0.779   0.791   0.823   0.850   0.879   0.889
  0.917   0.940   0.947   0.960   0.986   1.001   1.014   1.027
  1.040   1.071   1.075   1.092   1.109   1.135   1.150   1.158
  1.166   1.176   1.192   1.204   1.236   1.244   1.251   1.268
  1.287   1.301   1.315   1.327   1.330   1.341   1.356   1.370
  1.382   1.389   1.411   1.421   1.423   1.443   1.452   1.466
  1.477   1.502   1.509   1.520   1.549   1.557   1.568   1.582
  1.582   1.595   1.620   1.632   1.661   1.668   1.721   1.783
  1.818   1.963   2.078   2.125   2.272   2.292   2.434   2.447
  2.463   2.473   2.500   2.593   2.596   2.649   2.682   2.713
  2.734   2.748   2.765   2.807   2.827   2.848   2.887   2.920
  2.931   2.962   2.968   2.995   3.011   3.017   3.039   3.066
  3.079   3.109   3.120   3.141   3.160   3.173   3.194   3.207
  3.223   3.225   3.279   3.296   3.303   3.323   3.353   3.365
  3.388   3.417   3.430   3.434   3.451   3.489   3.498   3.535
  3.548   3.580   3.592   3.610   3.633   3.663   3.666   3.686
  3.703   3.732   3.747   3.758   3.768   3.782   3.796   3.827
  3.883   3.892   3.924   3.945   3.950   3.963   3.997   4.007
  4.033   4.041   4.057   4.070   4.108   4.130   4.139   4.175
  4.181   4.194   4.224   4.244   4.259   4.281   4.312   4.336
  4.342   4.358   4.405   4.432   4.448   4.464   4.482   4.489
  4.493   4.522   4.540   4.578   4.612   4.747   4.794   4.838
  4.881   4.934   4.990   5.100   5.160   5.177   5.206   5.304
  5.358   5.437   5.466   5.494   5.526   5.557   5.563   5.587
  5.599   5.659   5.686   5.759   5.885   6.444   6.962   7.142
  7.181   7.192   7.467   7.586  24.029  24.083  24.149  24.244
 24.295  49.794
 --------------------------------------------------------------
 
          Ground-State Mulliken Net Atomic Charges

     Atom                 Charge (a.u.)    Spin (a.u.)
  --------------------------------------------------------
      1 C                     0.070898      -0.086154
      2 C                    -0.142789       0.547463
      3 C                    -0.683856       0.009586
      4 O                    -0.280530       0.015503
      5 C                    -0.600639       0.625213
      6 C                    -0.729771       0.003989
[...]
 H          0.130  0.477 -0.001   -0.453  0.062  0.326   -0.073 -0.454 -0.014
 H          0.250  0.006  0.125    0.254  0.156 -0.181    0.587  0.015 -0.002
 H         -0.350  0.270 -0.152    0.060 -0.180 -0.014   -0.179  0.157 -0.058
 H         -0.224  0.201  0.005    0.274 -0.303  0.068   -0.175  0.182 -0.026
 H          0.054 -0.152 -0.051   -0.022  0.039  0.069   -0.098  0.188  0.096
 H          0.080  0.133  0.051    0.026 -0.039  0.028    0.079  0.028  0.103
 H          0.129  0.043 -0.132   -0.045 -0.026  0.045   -0.065 -0.024  0.062
 H          0.011 -0.046 -0.045   -0.211 -0.108  0.017    0.136  0.017 -0.013
 H         -0.174 -0.186 -0.121    0.156  0.141  0.129   -0.018 -0.118 -0.004
 H         -0.014 -0.013 -0.089   -0.116 -0.091  0.092    0.206  0.161  0.056
 H         -0.217 -0.158  0.040   -0.184  0.228 -0.194   -0.098 -0.239  0.073
 TransDip   0.000  0.000  0.000    0.000  0.000  0.000    0.000  0.000  0.000

 Mode:                22                     23                     24
 Frequency:      1153.71                1210.66                1250.35
 Force Cnst:      1.2089                 1.3558                 1.3791
 Red. Mass:       1.5415                 1.5700                 1.4972
 IR Active:          YES                    YES                    YES
 IR Intens:        0.000                  0.000                  0.000
 Raman Active:       YES                    YES                    YES
               X      Y      Z        X      Y      Z        X      Y      Z
 C          0.148 -0.018  0.030    0.082  0.023  0.111   -0.122  0.094  0.096
 C          0.018  0.001  0.037   -0.062 -0.037 -0.083   -0.002 -0.019  0.026
 C         -0.017  0.056 -0.018    0.019 -0.035  0.080    0.008  0.001 -0.052
 O         -0.010 -0.023  0.007    0.021  0.015 -0.010   -0.016  0.008  0.008
 C         -0.072  0.011 -0.053   -0.026 -0.012 -0.020    0.006 -0.045 -0.032
 C         -0.096  0.037 -0.023   -0.035  0.013 -0.088    0.031 -0.023 -0.051
 H          0.324 -0.140 -0.073    0.130  0.258  0.156    0.715 -0.244 -0.336
 H         -0.332 -0.128  0.146    0.147  0.092 -0.180    0.301  0.056 -0.039
 H          0.150 -0.048  0.066   -0.312  0.023 -0.158    0.126  0.057  0.070
 H          0.216 -0.245  0.044   -0.317  0.350 -0.063    0.097 -0.107  0.020
 H         -0.038  0.367 -0.017    0.002  0.180 -0.021    0.001  0.036  0.021
 H          0.085  0.016  0.054   -0.023 -0.019  0.003    0.104  0.054  0.091
 H          0.066 -0.233  0.126    0.040 -0.142  0.078    0.037 -0.081 -0.020
 H         -0.067 -0.278 -0.114   -0.243 -0.269 -0.068   -0.161  0.018  0.044
 H         -0.062 -0.278 -0.019    0.119 -0.036  0.097    0.092  0.160  0.051
 H          0.211  0.162  0.103   -0.002  0.003  0.150   -0.112 -0.095  0.077
 H         -0.163  0.136 -0.107    0.383 -0.100  0.167   -0.024 -0.078  0.025
 TransDip   0.000  0.000  0.000    0.000  0.000  0.000    0.000  0.000  0.000

 Mode:                25                     26                     27
 Frequency:      1272.00                1304.75                1338.23
 Force Cnst:      1.1843                 1.2444                 1.3246
 Red. Mass:       1.2423                 1.2406                 1.2554
 IR Active:          YES                    YES                    YES
 IR Intens:        0.000                  0.000                  0.000
 Raman Active:       YES                    YES                    YES
               X      Y      Z        X      Y      Z        X      Y      Z
 C         -0.019  0.049  0.020    0.002 -0.083 -0.017    0.059  0.078 -0.005
 C          0.052  0.011 -0.074   -0.099 -0.025  0.001   -0.033 -0.034 -0.022
 C         -0.015  0.009  0.074    0.024  0.029 -0.026   -0.018  0.037 -0.061
 O          0.024 -0.021 -0.016   -0.006 -0.001  0.003   -0.029  0.019  0.033
 C         -0.017 -0.025 -0.023   -0.010  0.006  0.001   -0.019 -0.002 -0.009
 C          0.018 -0.019  0.018   -0.009  0.024 -0.024    0.006 -0.016  0.030
 H         -0.056 -0.375 -0.068    0.019  0.420  0.101   -0.302 -0.322  0.040
 H         -0.314 -0.284  0.122    0.233 -0.103  0.019    0.021 -0.019 -0.035
 H         -0.232 -0.057 -0.133    0.223  0.011  0.120   -0.011  0.153 -0.005
 H         -0.203  0.213 -0.041    0.078 -0.084  0.016    0.242 -0.271  0.058
 H         -0.070 -0.012  0.123   -0.083 -0.154  0.137   -0.014 -0.089 -0.043
 H          0.387  0.280  0.361    0.455  0.299  0.444    0.139  0.088  0.105
 H          0.047  0.070 -0.141    0.075  0.176 -0.194    0.143 -0.100  0.006
 H          0.005  0.069  0.043    0.014 -0.033 -0.042    0.003 -0.023  0.022
 H         -0.045  0.013 -0.047    0.089  0.006  0.084   -0.103 -0.067 -0.099
 H         -0.078 -0.060 -0.032    0.076  0.058  0.067   -0.103 -0.061 -0.102
 H         -0.052  0.185 -0.096    0.007  0.015 -0.009    0.524 -0.337  0.322
 TransDip   0.000  0.000  0.000    0.000  0.000  0.000    0.000  0.000  0.000

 Mode:                28                     29                     30
 Frequency:      1359.07                1390.76                1401.11
 Force Cnst:      1.4222                 1.4854                 1.5736
 Red. Mass:       1.3069                 1.3034                 1.3605
 IR Active:          YES                    YES                    YES
 IR Intens:        0.000                  0.000                  0.000
 Raman Active:       YES                    YES                    YES
               X      Y      Z        X      Y      Z        X      Y      Z
 C          0.068  0.082 -0.002    0.031  0.041 -0.002    0.035  0.041  0.014
 C         -0.096 -0.020  0.038    0.004 -0.008  0.006   -0.060 -0.004 -0.009
 C         -0.005 -0.015  0.020   -0.067  0.009 -0.008    0.123 -0.015  0.020
 O          0.033 -0.004 -0.029    0.020  0.008 -0.009   -0.032 -0.011  0.015
 C         -0.025  0.014 -0.009    0.011 -0.033 -0.007   -0.015  0.013 -0.004
 C          0.001 -0.010  0.021   -0.087 -0.096 -0.028   -0.054 -0.062 -0.020
 H         -0.186 -0.272  0.017   -0.056 -0.092  0.004   -0.106 -0.108  0.038
 H          0.339  0.144 -0.086   -0.024  0.010  0.000    0.156  0.048 -0.066
 H          0.380 -0.260  0.211    0.267 -0.216  0.149   -0.425  0.331 -0.251
 H         -0.216  0.246 -0.063   -0.113  0.128 -0.036    0.184 -0.218  0.050
 H          0.012 -0.190 -0.153   -0.001  0.201  0.094    0.004 -0.130 -0.098
 H          0.008  0.033  0.009    0.021  0.005 -0.023   -0.012  0.042  0.007
 H          0.268 -0.212  0.065   -0.164  0.072 -0.024    0.173 -0.127  0.041
 H         -0.003 -0.075  0.001    0.261  0.402 -0.029    0.174  0.230 -0.031
 H         -0.081 -0.075 -0.078    0.136  0.339  0.261    0.101  0.209  0.182
 H         -0.109 -0.055 -0.106    0.427  0.154  0.098    0.241  0.081  0.046
 H         -0.253  0.174 -0.167    0.204 -0.087  0.101   -0.349  0.130 -0.151
 TransDip   0.000  0.000  0.000    0.000  0.000  0.000    0.000  0.000  0.000

 Mode:                31                     32                     33
 Frequency:      1411.89                1474.68                1476.99
 Force Cnst:      1.5546                 1.3382                 1.3494
 Red. Mass:       1.3236                 1.0444                 1.0499
 IR Active:          YES                    YES                    YES
 IR Intens:        0.000                  0.000                  0.000
 Raman Active:       YES                    YES                    YES
               X      Y      Z        X      Y      Z        X      Y      Z
 C          0.047  0.054 -0.020    0.006  0.014 -0.021   -0.023  0.018  0.009
 C         -0.080 -0.014  0.022   -0.006 -0.003  0.006    0.008 -0.001 -0.004
 C          0.054 -0.002  0.001    0.007  0.009 -0.001   -0.002  0.002  0.000
 O         -0.008 -0.002  0.002   -0.001  0.001  0.000    0.000  0.000  0.000
 C          0.046 -0.101 -0.011    0.002 -0.005  0.003    0.006 -0.009 -0.001
 C          0.018  0.005  0.020    0.000  0.019 -0.045   -0.038  0.032  0.015
 H         -0.160 -0.104  0.024   -0.056 -0.043 -0.013    0.023 -0.030 -0.023
 H          0.195  0.090 -0.059    0.002  0.011 -0.001   -0.015  0.000 -0.004
 H         -0.038  0.060 -0.042    0.006 -0.070 -0.040   -0.005 -0.009 -0.008
 H          0.044 -0.055  0.008    0.005 -0.004  0.001    0.000  0.003  0.002
 H          0.012  0.562  0.291    0.006  0.008 -0.005    0.005  0.022  0.017
 H          0.024  0.042 -0.033   -0.007  0.019 -0.034   -0.003  0.002 -0.010
 H         -0.505  0.304 -0.137   -0.008  0.008 -0.006   -0.027  0.013 -0.007
 H         -0.070 -0.097  0.027    0.116  0.409  0.031    0.552 -0.296 -0.313
 H         -0.099 -0.068 -0.123    0.168 -0.548  0.114    0.337 -0.122  0.418
 H         -0.113 -0.051 -0.089   -0.265 -0.169  0.594   -0.289 -0.080 -0.329
 H         -0.175  0.037 -0.053   -0.054 -0.050  0.047    0.008 -0.011  0.012
 TransDip   0.000  0.000  0.000    0.000  0.000  0.000    0.000  0.000  0.000

 Mode:                34                     35                     36
 Frequency:      1480.16                1768.10                2943.67
 Force Cnst:      1.4078                 1.9357                 5.4668
 Red. Mass:       1.0906                 1.0510                 1.0708
 IR Active:          YES                    YES                    YES
 IR Intens:        0.000                  0.000                  0.000
 Raman Active:       YES                    YES                    YES
               X      Y      Z        X      Y      Z        X      Y      Z
 C          0.005  0.007 -0.004   -0.009 -0.034  0.025    0.002 -0.001  0.004
 C          0.004 -0.002  0.004    0.011 -0.029  0.011    0.001  0.001  0.002
 C         -0.044 -0.073 -0.002   -0.001  0.001  0.000   -0.006 -0.058 -0.048
 O          0.003 -0.008  0.002   -0.001  0.001 -0.001    0.001 -0.001  0.001
 C          0.002 -0.004  0.000   -0.017 -0.009  0.024    0.000  0.001  0.001
 C         -0.002  0.001 -0.004    0.003  0.004  0.000    0.000  0.000  0.000
 H         -0.017 -0.021 -0.005    0.001 -0.031  0.029   -0.022  0.011 -0.049
 H          0.008  0.009  0.000   -0.021  0.036 -0.030   -0.001 -0.019 -0.030
 H          0.039  0.584  0.381    0.007  0.003  0.008    0.108  0.059 -0.154
 H         -0.014  0.005 -0.002   -0.002  0.001 -0.002    0.000 -0.003  0.004
 H          0.002  0.026  0.009    0.009  0.010 -0.050    0.000  0.001  0.001
 H         -0.015 -0.014 -0.013    0.131  0.742 -0.647   -0.002 -0.002 -0.003
 H         -0.026  0.010  0.000    0.029  0.005 -0.006   -0.004 -0.005 -0.004
 H          0.026  0.052  0.000   -0.010 -0.016  0.003    0.004 -0.002  0.008
 H          0.023 -0.069  0.019    0.001  0.016 -0.002    0.000  0.000 -0.001
 H         -0.034 -0.022  0.067    0.011  0.010 -0.008    0.002 -0.002  0.000
 H          0.395  0.414 -0.399    0.011  0.004 -0.001   -0.056  0.659  0.717
 TransDip   0.000  0.000  0.000    0.000  0.000  0.000    0.000  0.000  0.000

 Mode:                37                     38                     39
 Frequency:      2971.20                2976.31                3043.85
 Force Cnst:      5.6286                 5.4226                 6.0041
 Red. Mass:       1.0822                 1.0390                 1.0999
 IR Active:          YES                    YES                    YES
 IR Intens:        0.000                  0.000                  0.000
 Raman Active:       YES                    YES                    YES
               X      Y      Z        X      Y      Z        X      Y      Z
 C         -0.030  0.018 -0.071   -0.008  0.006 -0.020   -0.005  0.003 -0.011
 C         -0.001  0.001  0.001    0.000  0.001  0.001    0.000  0.002  0.004
 C         -0.001 -0.003 -0.003    0.000 -0.001  0.000    0.001  0.001 -0.001
 O          0.000  0.000  0.000    0.000  0.000  0.000    0.000  0.000  0.000
 C          0.001  0.001  0.002    0.001  0.000  0.000    0.001  0.000  0.001
 C          0.011  0.001  0.017   -0.032 -0.028 -0.024   -0.015  0.057 -0.069
 H          0.352 -0.212  0.853    0.097 -0.061  0.237    0.051 -0.026  0.117
 H         -0.002 -0.005 -0.010   -0.003 -0.007 -0.009   -0.004 -0.022 -0.037
 H          0.013  0.007 -0.013    0.003  0.002 -0.004   -0.010 -0.007  0.014
 H          0.001 -0.006  0.005    0.001 -0.002  0.001    0.000 -0.001  0.001
 H          0.005  0.000  0.002   -0.005 -0.002 -0.002   -0.010  0.000 -0.005
 H         -0.001 -0.004  0.003   -0.001 -0.003  0.002   -0.001 -0.002  0.001
 H         -0.014 -0.023 -0.027   -0.002 -0.006 -0.005   -0.002 -0.006 -0.007
 H         -0.103  0.071 -0.254    0.235 -0.162  0.579    0.261 -0.161  0.626
 H         -0.056 -0.008  0.052    0.370  0.025 -0.328   -0.326 -0.014  0.260
 H          0.034 -0.072 -0.002   -0.234  0.459  0.033    0.247 -0.498 -0.058
 H         -0.001  0.036  0.038    0.001  0.006  0.006    0.001  0.001  0.001
 TransDip   0.000  0.000  0.000    0.000  0.000  0.000    0.000  0.000  0.000

 Mode:                40                     41                     42
 Frequency:      3049.04                3055.00                3058.81
 Force Cnst:      5.9769                 5.7938                 6.0772
 Red. Mass:       1.0912                 1.0536                 1.1024
 IR Active:          YES                    YES                    YES
 IR Intens:        0.000                  0.000                  0.000
 Raman Active:       YES                    YES                    YES
               X      Y      Z        X      Y      Z        X      Y      Z
 C          0.000  0.000  0.000    0.002 -0.003  0.002    0.000  0.000 -0.002
 C          0.001  0.009  0.017    0.001  0.001  0.003    0.000  0.001  0.003
 C          0.047  0.020 -0.068   -0.004 -0.001  0.006    0.000  0.000  0.000
 O         -0.001  0.000  0.001    0.000  0.000  0.000    0.000  0.000  0.000
 C         -0.003  0.003  0.001   -0.045  0.044  0.010    0.004 -0.004 -0.001
 C          0.001 -0.002  0.002    0.006 -0.004 -0.005    0.067 -0.042 -0.048
 H          0.000  0.000  0.001   -0.010  0.005 -0.020    0.004 -0.002  0.011
 H         -0.013 -0.117 -0.200   -0.004 -0.022 -0.037   -0.004 -0.018 -0.029
 H         -0.555 -0.347  0.691    0.046  0.029 -0.058    0.004  0.003 -0.005
 H          0.012  0.000 -0.009   -0.001  0.000  0.001    0.000  0.000  0.000
 H          0.052 -0.006  0.021    0.720 -0.089  0.287   -0.074  0.011 -0.030
 H          0.000  0.000  0.002   -0.003  0.008 -0.001    0.001 -0.001  0.000
 H         -0.016 -0.030 -0.032   -0.202 -0.395 -0.415    0.021  0.044  0.046
 H         -0.007  0.004 -0.017    0.007 -0.003  0.012    0.037 -0.024  0.042
 H          0.006  0.000 -0.005   -0.055 -0.004  0.048   -0.569 -0.056  0.491
 H         -0.009  0.017  0.002   -0.025  0.057  0.004   -0.274  0.576  0.037
 H          0.000  0.114  0.114    0.000 -0.015 -0.016    0.000  0.001  0.001
 TransDip   0.000  0.000  0.000    0.000  0.000  0.000    0.000  0.000  0.000

 Mode:                43                     44                     45
 Frequency:      3074.15                3163.45                3882.61
 Force Cnst:      6.0650                 6.5845                 9.4707
 Red. Mass:       1.0893                 1.1167                 1.0663
 IR Active:          YES                    YES                    YES
 IR Intens:        0.000                  0.000                  0.000
 Raman Active:       YES                    YES                    YES
               X      Y      Z        X      Y      Z        X      Y      Z
 C         -0.002 -0.001  0.000   -0.002  0.001 -0.002    0.000  0.000  0.000
 C         -0.007 -0.040 -0.072    0.000  0.000  0.000    0.000  0.000  0.000
 C          0.013  0.002 -0.017    0.000 -0.001 -0.001    0.002  0.000 -0.001
 O          0.000  0.000  0.000    0.000  0.000  0.000    0.034  0.029 -0.044
 C         -0.003  0.003  0.001   -0.067 -0.037 -0.063    0.000  0.000  0.000
 C          0.002  0.000 -0.005    0.000  0.001  0.000    0.000  0.000  0.000
 H          0.005 -0.005  0.018    0.013 -0.009  0.026   -0.001  0.000 -0.005
 H          0.064  0.484  0.833    0.000  0.000 -0.001    0.000  0.001  0.000
 H         -0.130 -0.078  0.154   -0.001  0.000  0.001   -0.007 -0.004  0.010
 H          0.004 -0.001 -0.002    0.000  0.000  0.000   -0.552 -0.448  0.701
 H          0.043 -0.006  0.016    0.563 -0.081  0.206    0.000  0.000  0.000
 H          0.004  0.002 -0.004    0.000  0.000 -0.001    0.001  0.000  0.000
 H         -0.012 -0.024 -0.024    0.239  0.519  0.544    0.000  0.000  0.000
 H          0.015 -0.007  0.030    0.004  0.000  0.008    0.000  0.000  0.000
 H         -0.030 -0.001  0.028   -0.001  0.001  0.000    0.000  0.000  0.000
 H         -0.002  0.010 -0.001    0.003 -0.006  0.000    0.000  0.000  0.000
 H         -0.001  0.051  0.054    0.001  0.005  0.005    0.001 -0.003  0.000
 TransDip   0.000  0.000  0.000    0.000  0.000  0.000    0.000  0.000  0.000

 STANDARD THERMODYNAMIC QUANTITIES AT   298.15 K  AND     1.00 ATM

   This Molecule has  1 Imaginary Frequencies
   Zero point vibrational energy:       90.475 kcal/mol

   Atom    1 Element C  Has Mass   12.00000
   Atom    2 Element C  Has Mass   12.00000
   Atom    3 Element C  Has Mass   12.00000
   Atom    4 Element O  Has Mass   15.99491
   Atom    5 Element C  Has Mass   12.00000
   Atom    6 Element C  Has Mass   12.00000
   Atom    7 Element H  Has Mass    1.00783
   Atom    8 Element H  Has Mass    1.00783
   Atom    9 Element H  Has Mass    1.00783
   Atom   10 Element H  Has Mass    1.00783
   Atom   11 Element H  Has Mass    1.00783
   Atom   12 Element H  Has Mass    1.00783
   Atom   13 Element H  Has Mass    1.00783
   Atom   14 Element H  Has Mass    1.00783
   Atom   15 Element H  Has Mass    1.00783
   Atom   16 Element H  Has Mass    1.00783
   Atom   17 Element H  Has Mass    1.00783
   Molecular Mass:    87.081040 amu
   Principal axes and moments of inertia in atomic units:
                             1           2           3
    Eigenvalues --      311.18103   861.60773  1028.25393
          X               0.99963     0.02719     0.00109
          Y              -0.02720     0.99960     0.00822
          Z              -0.00086    -0.00824     0.99997
   Rotational Symmetry Number is   1
   The Molecule is an Asymmetric Top
   Translational Enthalpy:        0.889 kcal/mol
   Rotational Enthalpy:           0.889 kcal/mol
   Vibrational Enthalpy:         93.657 kcal/mol
   gas constant (RT):             0.592 kcal/mol
   Translational Entropy:        39.306  cal/mol.K
   Rotational Entropy:           27.113  cal/mol.K
   Vibrational Entropy:          19.098  cal/mol.K

   Total Enthalpy:               96.027 kcal/mol
   Total Entropy:                85.516  cal/mol.K
Archival summary:
1\1\node26\FREQ\ProcedureUnspecified\BasisUnspecified\1511(2)\edames\MonApr2120:11:202014MonApr2120:11:202014\0\\#,FREQ,ProcedureUnspecified,BasisUnspecified,\\0,2\C\H,1,1.10096\C,1,1.52528,2,110.333\H,3,1.0972,1,111.324,2,-60.1398,0\H,3,1.0972,1,111.299,2,61.0942,0\H,3,1.0995,1,109.862,2,-179.563,0\C,1,1.53037,2,112.962,3,-128.427,0\H,7,1.09036,1,118.118,2,-18.7865,0\H,7,1.09214,1,117.718,2,128.113,0\H,7,1.40852,1,81.6788,2,-123.229,0\C,10,1.39933,7,103.558,1,7.93958,0\H,11,1.09462,10,110.889,7,-123.253,0\C,11,1.50479,10,107.5,7,107.833,0\H,13,1.09538,11,111.15,10,78.1812,0\H,13,1.10501,11,109.658,10,-40.8362,0\O,13,1.42619,11,112.363,10,-163.567,0\H,16,0.963632,13,109.104,11,55.6902,0\\\@

 Total job time:  63274.16s(wall), 59786.62s(cpu) 
 Mon Apr 21 20:11:20 2014

        *************************************************************
        *                                                           *
        *  Thank you very much for using Q-Chem.  Have a nice day.  *
        *                                                           *
        *************************************************************


0 sent ACK to 0 
now end server 0 ... 
cleanup process ... done
remove work dirs /tmp/qchem15644.0 -- /tmp/qchem15644.3
rm -rf /tmp/qchem15644.0
rm -rf /tmp/qchem15644.1
rm -rf /tmp/qchem15644.2
rm -rf /tmp/qchem15644.3
rm -rf /tmp/qchem15644
