
Running Job 1 of 2 ts35.in
qchem ts35.in_21269.0 /tmp/qchem21269/ 4
/opt/qchem/bin/mpi/mpirun_qchem -machinefile /tmp/281073.1.normal4/hostfile -np 4 /opt/qchem/exe/qcprog.exe ts35.in_21269.0 /tmp/qchem21269/

Process 2 of 4 is on node79.cluster - thread support 0
Process 0 of 4 is on node79.cluster - thread support 0
Process 1 of 4 is on node79.cluster - thread support 0
Process 3 of 4 is on node79.cluster - thread support 0
initial socket setup ...start
initial socket setup ...done 
now start server 0 ... 
                  Welcome to Q-Chem
     A Quantum Leap Into The Future Of Chemistry

 Y. Shao, L. Fusti-Molnar, Y. Jung, J. Kussmann, C. Ochsenfeld, S. T. Brown, 
 A. T. B. Gilbert, L. V. Slipchenko, S. V. Levchenko, D. P. O'Neill, 
 R. A. DiStasio Jr., R. C. Lochan, T. Wang, G. J. O. Beran, N. A. Besley, 
 J. M. Herbert, C. Y. Lin, T. Van Voorhis, S. H. Chien, A. Sodt, R. P. Steele, 
 V. A. Rassolov, P. E. Maslen, P. P. Korambath, R. D. Adamson, B. Austin, 
 J. Baker, E. F. C. Byrd, H. Dachsel, R. J. Doerksen, A. Dreuw, B. D. Dunietz, 
 A. D. Dutoi, T. R. Furlani, S. R. Gwaltney, A. Heyden, S. Hirata, C.-P. Hsu, 
 G. Kedziora, R. Z. Khaliullin, P. Klunzinger, A. M. Lee, M. S. Lee, W. Liang, 
 I. Lotan, N. Nair, B. Peters, E. I. Proynov, P. A. Pieniazek, Y. M. Rhee, 
 J. Ritchie, E. Rosta, C. D. Sherrill, A. C. Simmonett, J. E. Subotnik, 
 H. L. Woodcock III, W. Zhang, A. T. Bell, A. K. Chakraborty, D. M. Chipman, 
 F. J. Keil, A. Warshel, W. J. Hehre, H. F. Schaefer III, J. Kong, 
 A. I. Krylov, P. M. W. Gill, M. Head-Gordon

 Additional authors for Version 3.1: 
 Z. Gan, Y. Zhao, N. E. SchultzD. Truhlar, E. Epifanovsky, M. Oana

 Additional authors for Version 3.2: 
 R. Baer, B. R. Brooks, D. Casanova, J.-D. Chai, C.-L. Cheng, C. Cramer, 
 D. Crittenden, A. Ghysels, G. Hawkins, E. G. Hohenstein, C. Kelley, 
 W. Kurlancheek, D. Liotard, E. Livshits, P. Manohar, A. Marenich, 
 D. Neuhauser, R. Olson, M. A. Rohrdanz, K. S. Thanthiriwatte, A. J. W. Thom, 
 V. Vanovschi, C. F. Williams, Q. Wu, Z.-Q. You

 Additional authors for Version 4.0: 
 A. Aspuru-Guzik, Y. Bernard, C. Chang, J. Deng, A. Dreuw, M. Diedenhofen, 
 R. G. Edgar, D. Ghosh, W. A. Goddard III, M. Goldey, L. D. Jacobson, 
 M. Gordon, B. Kaduk, I. Kaliman, K. Khistyaev, R. King, A. Klamt, 
 D. Kosenkov, T. Kus, D. Lambrecht, A. Landau, A. W. Lange, K. Lawler, F. Liu, 
 J. Liu, R. Olivares-Amaya, S. P. Mao, J. Parkhill, N. Russ, M. Schmidt, 
 N. Shenvi, D. Small, Y. C. Su, E. Sundstrom, L. Vogt, O. Vydrov, M. Watson, 
 M. Wormit, X. Xu, S. Yeganeh, I. Y. Zhang, D. Zuev

 Additional authors for Version 4.1: 
 X. Feng, M. W. D. Hanson-Heine, P. Horn, H. Ji, A. Laurent, R. Peverati, 
 N. Mardirossian, N. Sergueev, S. Sharada, P. Zimmerman


 Q-Chem, Version 4.1, Q-Chem, Inc., Pittsburgh, PA (2013).

 Intel X86 Linux Version 4.1.0.1 

 Q-chem begins on Wed Apr  9 10:45:45 2014  

Host: 
0

     Scratch files written to /tmp/qchem21269.0//
 Oct1213 14483_epif 4150   
 Parallel job on  4  processors
Processing $rem in /opt/qchem/config/preferences.
 MEM_TOTAL  2000 
Warning: disabling incdft.
 Q-Chem warning in module /home/scratch/svnadmin/14483_epif/qchem/forms1/BasisType.C, line 1125:

 Setting pure/cartesian flag to 2111 for general basis


Finally everything over in PARseQInput

--------------------------------------------------------------
User input:
--------------------------------------------------------------
$rem
XC_GRID 000075000434
JOBTYPE ts
EXCHANGE M08SO
BASIS gen
GUI=2
UNRESTRICTED TRUE
CORRELATION NONE
$end

$comment
c5h11o-2
$end

$molecule
read ts35MG3S.out
$end

$basis
H  0
S  3 1.00
3.386500000000E+01 2.549380000000E-02
5.094790000000E+00 1.903730000000E-01
1.158790000000E+00 8.521610000000E-01
S  1 1.00
3.258400000000E-01 1.000000000000E+00
S  1 1.00
1.027410000000E-01 1.000000000000E+00
S  1 1.00
3.600000000000E-02 1.000000000000E+00
P  1 1.00
1.500000000000E+00 1.000000000000E+00
P  1 1.00
3.750000000000E-01 1.000000000000E+00
****
C 0
S  6 1.00
4.563240000000E+03 1.966650000000E-03
6.820240000000E+02 1.523060000000E-02
1.549730000000E+02 7.612690000000E-02
4.445530000000E+01 2.608010000000E-01
1.302900000000E+01 6.164620000000E-01
1.827730000000E+00 2.210060000000E-01
S  3 1.00
2.096420000000E+01 1.146600000000E-01
4.803310000000E+00 9.199990000000E-01
1.459330000000E+00 -3.030680000000E-03
S  1 1.00
4.834560000000E-01 1.000000000000E+00
S  1 1.00
1.455850000000E-01 1.000000000000E+00
S  1 1.00
4.380000000000E-02 1.000000000000E+00
P  3 1.00
2.096420000000E+01 4.024870000000E-02
4.803310000000E+00 2.375940000000E-01
1.459330000000E+00 8.158540000000E-01
P  1 1.00
4.834560000000E-01 1.000000000000E+00
P  1 1.00
1.455850000000E-01 1.000000000000E+00
P  1 1.00
4.380000000000E-02 1.000000000000E+00
D  1 1.00
1.252000000000E+00 1.000000000000E+00
D  1 1.00
3.130000000000E-01 1.000000000000E+00
F  1 1.00
8.000000000000E-01 1.000000000000E+00
****
O  0
S  6 1.00
8.588500000000E+03 1.895150000000E-03
1.297230000000E+03 1.438590000000E-02
2.992960000000E+02 7.073200000000E-02
8.737710000000E+01 2.400010000000E-01
2.567890000000E+01 5.947970000000E-01
3.740040000000E+00 2.808020000000E-01
S  3 1.00
4.211750000000E+01 1.138890000000E-01
9.628370000000E+00 9.208110000000E-01
2.853320000000E+00 -3.274470000000E-03
S  1 1.00
9.056610000000E-01 1.000000000000E+00
S  1 1.00
2.556110000000E-01 1.000000000000E+00
S  1 1.00
8.450000000000E-02 1.000000000000E+00
P  3 1.00
4.211750000000E+01 3.651140000000E-02
9.628370000000E+00 2.371530000000E-01
2.853320000000E+00 8.197020000000E-01
P  1 1.00
9.056610000000E-01 1.000000000000E+00
P  1 1.00
2.556110000000E-01 1.000000000000E+00
P  1 1.00
8.450000000000E-02 1.000000000000E+00
D  1 1.00
2.584000000000E+00 1.000000000000E+00
D  1 1.00
6.460000000000E-01 1.000000000000E+00
F  1 1.00
1.400000000000E+00 1.000000000000E+00
****
$end

--------------------------------------------------------------
 ----------------------------------------------------
       Standard Nuclear Orientation (Angstroms)
    I     Atom         X            Y            Z
 ----------------------------------------------------
    1      C      -0.865822    -0.106753     0.345814
    2      C       0.238970     0.209595    -0.670957
    3      C       1.610499     0.520492    -0.137657
    4      O       2.330859    -0.646086     0.251856
    5      C      -1.433197     1.305452     0.232017
    6      C      -1.826944    -1.203317    -0.088376
    7      H      -0.469911    -0.321975     1.347118
    8      H       0.201245    -0.348923    -1.609417
    9      H       2.232302     0.991394    -0.900637
   10      H       1.814987    -1.116982     0.921799
   11      H      -2.444308     1.412077    -0.159615
   12      H      -0.483944     1.402666    -0.788160
   13      H      -1.141995     2.026050     0.994067
   14      H      -2.253801    -0.967769    -1.070540
   15      H      -2.654469    -1.307276     0.620240
   16      H      -1.319220    -2.169545    -0.166821
   17      H       1.531202     1.216160     0.712073
 ----------------------------------------------------
 Molecular Point Group                 C1    NOp =  1
 Largest Abelian Subgroup              C1    NOp =  1
 Nuclear Repulsion Energy =   247.8076235275 hartrees
 There are       25 alpha and       24 beta electrons
 Requested basis set is non-standard
 There are 138 shells and 314 basis functions

Total QAlloc Memory Limit   2000 MB
Mega-Array Size        61 MB
MEM_STATIC part        62 MB
 A cutoff of  1.0D-11 yielded   9021 shell pairs
 There are     46437 function pairs (     55764 Cartesian)
 Smallest overlap matrix eigenvalue = 1.29E-05

  Scale SEOQF with 1.000000e-01/1.000000e-01/1.000000e-01

 Standard Electronic Orientation quadrupole field applied
 Nucleus-field energy     =     0.0000000062 hartrees
 Guess MOs from core Hamiltonian diagonalization
 An unrestricted hybrid HF-DFT SCF calculation will be
 performed using Pulay DIIS extrapolation
 Exchange:     0.5679 Hartree-Fock + 1.0000 M08SO
 SCF converges when DIIS error is below 1.0E-08
 ---------------------------------------
  Cycle       Energy         DIIS Error
 ---------------------------------------
    1    -192.2806831397      9.18E-02
    2    -165.2230758055      5.07E-02
    3    -175.1260229100      6.34E-02
    4    -246.0741902227      3.60E-02
    5    -269.1621606013      1.51E-02
    6    -270.8066400291      9.42E-03
    7    -271.7052654271      6.02E-03
    8    -272.1108179949      1.20E-03
    9    -272.1311659292      5.05E-04
   10    -272.1358349111      1.28E-04
   11    -272.1363776093      4.64E-05
   12    -272.1364721589      1.60E-05
   13    -272.1364925775      7.84E-06
   14    -272.1364994283      2.73E-06
   15    -272.1365005268      9.56E-07
   16    -272.1365006804      5.17E-07
   17    -272.1365007040      1.40E-07
   18    -272.1365007070      5.70E-08
   19    -272.1365007075      2.22E-08
   20    -272.1365007074      8.19E-09 Convergence criterion met
 ---------------------------------------
 <S^2> = 0.7609
 SCF time:  CPU 1854.80 s  wall 1865.17 s
 SCF   energy in the final basis set = -272.1365007074
 Total energy in the final basis set = -272.1365007074
 Analysis of SCF Wavefunction
 
 --------------------------------------------------------------
                    Orbital Energies (a.u.)
 --------------------------------------------------------------
 
 Alpha MOs
 -- Occupied --
-19.565 -10.546 -10.512 -10.511 -10.509 -10.492  -1.136  -0.938
 -0.825  -0.784  -0.712  -0.653  -0.596  -0.566  -0.529  -0.523
 -0.504  -0.472  -0.469  -0.437  -0.415  -0.393  -0.383  -0.365
 -0.231
 -- Virtual --
 -0.027  -0.016  -0.012  -0.004   0.012   0.016   0.019   0.020
  0.028   0.046   0.051   0.060   0.065   0.077   0.080   0.093
  0.099   0.108   0.118   0.121   0.123   0.127   0.131   0.139
  0.146   0.149   0.156   0.158   0.164   0.173   0.179   0.195
  0.202   0.209   0.223   0.225   0.233   0.244   0.253   0.257
  0.265   0.284   0.299   0.310   0.316   0.327   0.336   0.346
  0.369   0.374   0.401   0.434   0.444   0.451   0.456   0.470
  0.499   0.509   0.520   0.527   0.539   0.564   0.564   0.570
  0.581   0.590   0.594   0.600   0.605   0.609   0.619   0.626
  0.635   0.638   0.659   0.681   0.690   0.702   0.709   0.719
  0.746   0.779   0.784   0.797   0.851   0.863   0.892   0.923
  0.929   0.938   0.959   0.981   0.990   1.007   1.013   1.044
  1.050   1.075   1.090   1.105   1.116   1.140   1.152   1.160
  1.177   1.196   1.207   1.222   1.238   1.244   1.272   1.279
  1.296   1.305   1.322   1.334   1.341   1.354   1.365   1.379
  1.381   1.398   1.408   1.413   1.439   1.443   1.456   1.464
  1.492   1.495   1.518   1.528   1.551   1.554   1.562   1.571
  1.597   1.615   1.638   1.640   1.665   1.710   1.749   1.773
  1.948   2.069   2.113   2.272   2.295   2.409   2.441   2.447
  2.476   2.507   2.568   2.608   2.623   2.655   2.674   2.703
  2.720   2.748   2.776   2.788   2.812   2.856   2.870   2.912
  2.927   2.945   2.955   2.991   2.997   3.025   3.038   3.064
  3.076   3.091   3.118   3.136   3.148   3.166   3.184   3.192
  3.223   3.237   3.274   3.286   3.306   3.326   3.345   3.358
  3.377   3.391   3.411   3.431   3.464   3.490   3.526   3.531
  3.554   3.560   3.584   3.613   3.627   3.659   3.675   3.698
  3.719   3.721   3.736   3.748   3.775   3.788   3.818   3.849
  3.882   3.892   3.911   3.946   3.958   4.005   4.021   4.034
  4.043   4.062   4.076   4.086   4.121   4.154   4.158   4.175
  4.182   4.194   4.222   4.222   4.250   4.285   4.294   4.336
  4.348   4.380   4.421   4.428   4.441   4.457   4.466   4.476
  4.504   4.535   4.574   4.597   4.727   4.771   4.782   4.822
  4.862   4.959   5.060   5.144   5.175   5.194   5.247   5.351
  5.409   5.431   5.465   5.481   5.493   5.515   5.546   5.584
  5.643   5.651   5.753   5.878   6.449   6.957   7.106   7.178
  7.188   7.466   7.590  24.023  24.070  24.151  24.237  24.291
 49.790
 
 Beta MOs
 -- Occupied --
-19.564 -10.546 -10.512 -10.500 -10.497 -10.492  -1.132  -0.930
 -0.821  -0.776  -0.704  -0.648  -0.594  -0.551  -0.523  -0.514
 -0.501  -0.470  -0.463  -0.431  -0.415  -0.386  -0.374  -0.361
 -- Virtual --
 -0.037  -0.031  -0.017  -0.014  -0.002   0.009   0.012   0.015
  0.018   0.023   0.045   0.046   0.056   0.062   0.076   0.078
  0.088   0.097   0.106   0.117   0.117   0.121   0.123   0.129
  0.137   0.143   0.146   0.153   0.156   0.163   0.178   0.180
  0.198   0.203   0.210   0.224   0.224   0.233   0.242   0.253
  0.259   0.268   0.288   0.302   0.311   0.316   0.327   0.338
  0.350   0.372   0.380   0.402   0.434   0.445   0.451   0.458
  0.470   0.505   0.511   0.530   0.535   0.544   0.565   0.566
  0.574   0.586   0.595   0.601   0.605   0.609   0.618   0.625
  0.632   0.645   0.648   0.673   0.683   0.694   0.705   0.714
  0.725   0.753   0.782   0.791   0.802   0.854   0.866   0.893
  0.926   0.932   0.943   0.963   0.985   0.994   1.009   1.017
  1.046   1.056   1.081   1.093   1.106   1.119   1.146   1.159
  1.164   1.180   1.202   1.213   1.226   1.245   1.252   1.281
  1.285   1.305   1.312   1.330   1.340   1.347   1.365   1.370
  1.387   1.389   1.407   1.412   1.418   1.442   1.448   1.462
  1.478   1.494   1.500   1.523   1.545   1.558   1.563   1.567
  1.582   1.606   1.626   1.648   1.655   1.675   1.716   1.756
  1.783   1.951   2.077   2.116   2.274   2.297   2.424   2.450
  2.472   2.483   2.518   2.582   2.622   2.636   2.694   2.704
  2.735   2.746   2.779   2.794   2.816   2.859   2.895   2.902
  2.926   2.950   2.967   2.987   3.005   3.036   3.061   3.067
  3.095   3.105   3.124   3.146   3.155   3.173   3.187   3.196
  3.208   3.246   3.251   3.288   3.307   3.322   3.355   3.368
  3.381   3.396   3.424   3.439   3.449   3.491   3.524   3.547
  3.564   3.572   3.579   3.609   3.633   3.648   3.675   3.698
  3.709   3.727   3.738   3.746   3.765   3.798   3.802   3.835
  3.874   3.901   3.914   3.935   3.963   3.964   4.007   4.029
  4.037   4.047   4.069   4.084   4.096   4.137   4.164   4.170
  4.184   4.192   4.198   4.234   4.257   4.262   4.301   4.314
  4.348   4.369   4.407   4.441   4.454   4.464   4.483   4.493
  4.497   4.537   4.558   4.592   4.610   4.759   4.783   4.838
  4.869   4.928   5.000   5.117   5.171   5.177   5.204   5.287
  5.358   5.444   5.475   5.505   5.517   5.546   5.563   5.586
  5.591   5.651   5.663   5.759   5.879   6.446   6.957   7.108
  7.179   7.189   7.465   7.590  24.031  24.081  24.152  24.242
 24.300  49.790
 --------------------------------------------------------------
 
          Ground-State Mulliken Net Atomic Charges

     Atom                 Charge (a.u.)    Spin (a.u.)
  --------------------------------------------------------
      1 C                     0.381530      -0.093149
      2 C                    -0.304058       0.572672
      3 C                    -0.660866       0.008386
      4 O                    -0.278839       0.012283
      5 C                    -0.736404       0.602158
      6 C                    -0.818623       0.008741
      7 H                     0.252946       0.005375
      8 H                     0.275972      -0.011133
      9 H                     0.200251       0.003181
     10 H                     0.266051       0.001873
     11 H                     0.210829      -0.005431
     12 H                     0.171409      -0.085874
     13 H                     0.195245      -0.016079
     14 H                     0.201976       0.001500
     15 H                     0.213416      -0.000668
     16 H                     0.197088      -0.001469
     17 H                     0.232077      -0.002366
  --------------------------------------------------------
  Sum of atomic charges =     0.000000
  Sum of spin   charges =     1.000000

 -----------------------------------------------------------------
                    Cartesian Multipole Moments
 -----------------------------------------------------------------
    Charge (ESU x 10^10)
                 0.0000
    Dipole Moment (Debye)
         X      -1.7384      Y       0.2190      Z       0.6665
       Tot       1.8746
    Quadrupole Moments (Debye-Ang)
        XX     -46.8809     XY       2.6129     YY     -40.2244
        XZ       0.6437     YZ      -0.8411     ZZ     -38.8984
    Octapole Moments (Debye-Ang^2)
       XXX     -12.9213    XXY       6.1550    XYY       5.0595
       YYY      -6.8668    XXZ      -2.1765    XYZ      -2.5386
       YYZ       4.7798    XZZ       6.4901    YZZ      -3.4616
       ZZZ       2.7246
    Hexadecapole Moments (Debye-Ang^3)
      XXXX    -720.7773   XXXY      17.3199   XXYY    -156.3570
      XYYY      -5.1384   YYYY    -264.5098   XXXZ      -2.5267
      XXYZ      -9.1798   XYYZ       3.8628   YYYZ       0.2252
      XXZZ    -125.2103   XYZZ      -1.5415   YYZZ     -60.8934
      XZZZ       5.2253   YZZZ      -0.9285   ZZZZ    -110.5785
 -----------------------------------------------------------------
 Calculating analytic gradient of the SCF energy
 Gradient of Coulomb and Exchange Energy
            1           2           3           4           5           6
    1   3.5328218  -0.1549259  -3.4125182 -10.4130649   3.1817706   2.7395244
    2  -1.2839811  -0.8302124  -2.0940678   4.3107373  -2.8857180   3.7249188
    3  -1.0223409   3.0627139   0.4547689   0.2719006  -0.6634793  -0.0093337
            7           8           9          10          11          12
    1  -1.3174927  -0.1394437  -2.8743773   1.4869911   4.1551346   0.2450639
    2   0.8548235   2.1773315  -2.2956164   2.9936322  -1.0280796  -1.9867868
    3  -4.3267174   4.2985243   3.3077084  -3.4276549   1.5134410   1.1667780
           13          14          15          16          17
    1  -0.8149155   1.9618744   3.1670587  -1.1148214  -0.2286798
    2  -3.3970468  -0.0880779   0.8046442   3.8243365  -2.8008372
    3  -2.9005466   3.2375052  -2.2127492   0.4396897  -3.1902079
 Gradient of SCF Energy
            1           2           3           4           5           6
    1  -0.0026753  -0.0021659  -0.0005028   0.0042403   0.0006676   0.0002227
    2  -0.0002739   0.0046933   0.0000830   0.0035709  -0.0010134   0.0001719
    3  -0.0002325   0.0000701   0.0012821  -0.0046822  -0.0000565  -0.0001656
            7           8           9          10          11          12
    1  -0.0007591   0.0002662  -0.0007951  -0.0028496   0.0016656   0.0014873
    2   0.0007514   0.0000333  -0.0022996  -0.0010818  -0.0008144  -0.0017049
    3  -0.0015695   0.0017295   0.0021947   0.0027594   0.0008761  -0.0009450
           13          14          15          16          17
    1  -0.0000621   0.0004086   0.0015763  -0.0010232   0.0002985
    2  -0.0013571  -0.0005674  -0.0000434   0.0016280  -0.0017759
    3  -0.0006707   0.0017486  -0.0010113   0.0002281  -0.0015555
 Max gradient component =       4.693E-03
 RMS gradient           =       1.735E-03
 Gradient time:  CPU 129.49 s  wall 129.58 s
 Geometry Optimization Parameters
   NAtoms,    NIC,     NZ,  NCons,   NDum,   NFix, NCnnct, MaxDiis
       17     128       0       0       0       0       0       0


** GEOMETRY OPTIMIZATION IN DELOCALIZED INTERNAL COORDINATES **
   Searching for a Transition State

   Optimization Cycle:   1

                       Coordinates (Angstroms)
     ATOM              X           Y           Z
      1  C        -0.865822   -0.106753    0.345814
      2  C         0.238970    0.209595   -0.670957
      3  C         1.610499    0.520492   -0.137657
      4  O         2.330859   -0.646086    0.251856
      5  C        -1.433197    1.305452    0.232017
      6  C        -1.826944   -1.203317   -0.088376
      7  H        -0.469911   -0.321975    1.347118
      8  H         0.201245   -0.348923   -1.609417
      9  H         2.232302    0.991394   -0.900637
     10  H         1.814987   -1.116982    0.921799
     11  H        -2.444308    1.412077   -0.159615
     12  H        -0.483944    1.402666   -0.788160
     13  H        -1.141995    2.026050    0.994067
     14  H        -2.253801   -0.967769   -1.070540
     15  H        -2.654469   -1.307276    0.620240
     16  H        -1.319220   -2.169545   -0.166821
     17  H         1.531202    1.216160    0.712073
   Point Group: c1    Number of degrees of freedom:    45


   Energy is   -272.136500707


 Attempting to Generate Delocalized Internal Coordinates
 GETINT wrote B to file, NVib is           45
 calling HSSCONV
 HCONV 3*NATOMS:           51
 wrote HINT to file
  writing hessian 

 45 Hessian modes will be used to form the next step
  Hessian Eigenvalues:
     0.004333    0.006345    0.008643    0.012296    0.026644    0.029265
     0.039091    0.039849    0.040842    0.050313    0.054738    0.056485
     0.057804    0.059765    0.066242    0.081275    0.091786    0.105033
     0.108601    0.113657    0.117692    0.139934    0.146037    0.151297
     0.157273    0.160000    0.160000    0.160000    0.160000    0.220440
     0.264735    0.273799    0.302299    0.319564    0.335677    0.339007
     0.340709    0.343075    0.343182    0.344983    0.346845    0.348662
     0.349893    0.416687    0.538232
**WARNING** Hessian does not have the Desired Local Structure

 Transition State Search - Taking P-RFO Step
 Searching for Lamda that Maximizes Along the Lowest mode
 Value Taken    Lamda =   0.00433389
 Searching for Lamda that Minimizes Along All other modes
 Value Taken    Lamda =  -0.00051553
 Calculated Step too Large.  Step scaled by  0.004968
 Step Taken.  Stepsize is  0.300000

                             Maximum     Tolerance    Cnvgd?
         Gradient           0.004728      0.000300      NO
         Displacement       0.112503      0.001200      NO
         Energy change     *********      0.000001      NO


 New Cartesian Coordinates Obtained by Inverse Iteration

 Displacement from previous Coordinates is:  0.397677
 ----------------------------------------------------
       Standard Nuclear Orientation (Angstroms)
    I     Atom         X            Y            Z
 ----------------------------------------------------
    1      C      -0.865670    -0.129823     0.339994
    2      C       0.241413     0.183565    -0.674903
    3      C       1.600485     0.539391    -0.137812
    4      O       2.344114    -0.600221     0.286308
    5      C      -1.403010     1.295643     0.248358
    6      C      -1.849762    -1.200599    -0.106973
    7      H      -0.469864    -0.367556     1.336250
    8      H       0.224653    -0.397674    -1.600093
    9      H       2.218047     1.006085    -0.906829
   10      H       1.833277    -1.066657     0.963165
   11      H      -2.430922     1.427736    -0.087903
   12      H      -0.510441     1.355036    -0.824920
   13      H      -1.049740     2.013031     0.986842
   14      H      -2.275382    -0.941835    -1.083834
   15      H      -2.676665    -1.299005     0.603181
   16      H      -1.361446    -2.175326    -0.201952
   17      H       1.497369     1.253469     0.693924
 ----------------------------------------------------
 Molecular Point Group                 C1    NOp =  1
 Largest Abelian Subgroup              C1    NOp =  1
 Nuclear Repulsion Energy =   247.9223115405 hartrees
 There are       25 alpha and       24 beta electrons
 Applying Cartesian multipole field
    Component          Value
    ---------          -----
     (2,0,0)        1.00000E-11
     (0,2,0)        2.00000E-11
     (0,0,2)       -3.00000E-11
 Nucleus-field energy     =     0.0000000061 hartrees
 Requested basis set is non-standard
 There are 138 shells and 314 basis functions
 A cutoff of  1.0D-11 yielded   9022 shell pairs
 There are     46438 function pairs (     55764 Cartesian)
 Smallest overlap matrix eigenvalue = 1.28E-05
 Guess MOs from SCF MO coefficient file
Reading MOs from coefficient file
Reading MOs from coefficient file
 An unrestricted hybrid HF-DFT SCF calculation will be
 performed using Pulay DIIS extrapolation
 Exchange:     0.5679 Hartree-Fock + 1.0000 M08SO
 SCF converges when DIIS error is below 1.0E-08
Geometry optimization detected.  Setting ReadMinima to 0
Setting SaveMinima to 0
 ---------------------------------------
  Cycle       Energy         DIIS Error
 ---------------------------------------
    1    -272.1386746425      4.95E-04
    2    -272.1361938038      6.10E-05
    3    -272.1363121896      2.16E-05
    4    -272.1363230343      1.16E-05
    5    -272.1363257805      3.00E-06
    6    -272.1363260247      8.70E-07
    7    -272.1363260736      3.85E-07
    8    -272.1363260804      1.42E-07
    9    -272.1363260812      4.76E-08
   10    -272.1363260815      1.82E-08
   11    -272.1363260813      6.07E-09 Convergence criterion met
 ---------------------------------------
 <S^2> = 0.7609
 SCF time:  CPU 991.10 s  wall 997.36 s
 SCF   energy in the final basis set = -272.1363260813
 Total energy in the final basis set = -272.1363260813
 Analysis of SCF Wavefunction
 
 --------------------------------------------------------------
                    Orbital Energies (a.u.)
 --------------------------------------------------------------
 
 Alpha MOs
 -- Occupied --
-19.565 -10.546 -10.512 -10.512 -10.509 -10.492  -1.136  -0.939
 -0.825  -0.784  -0.712  -0.653  -0.597  -0.568  -0.529  -0.522
 -0.505  -0.472  -0.468  -0.436  -0.416  -0.393  -0.383  -0.365
 -0.231
 -- Virtual --
 -0.027  -0.016  -0.012  -0.004   0.012   0.016   0.020   0.021
  0.027   0.046   0.052   0.060   0.065   0.077   0.080   0.094
  0.100   0.107   0.118   0.121   0.122   0.127   0.131   0.140
  0.147   0.147   0.156   0.158   0.165   0.172   0.179   0.197
  0.202   0.210   0.223   0.224   0.231   0.245   0.251   0.257
  0.265   0.282   0.298   0.309   0.316   0.327   0.336   0.344
  0.368   0.375   0.400   0.433   0.445   0.449   0.459   0.470
  0.498   0.512   0.520   0.530   0.538   0.563   0.564   0.571
  0.580   0.590   0.593   0.599   0.603   0.610   0.618   0.627
  0.633   0.638   0.658   0.682   0.690   0.705   0.713   0.719
  0.746   0.777   0.786   0.797   0.848   0.861   0.891   0.919
  0.928   0.942   0.956   0.984   0.986   1.009   1.018   1.046
  1.048   1.073   1.088   1.105   1.114   1.138   1.151   1.164
  1.177   1.195   1.207   1.224   1.238   1.248   1.271   1.276
  1.296   1.303   1.319   1.334   1.342   1.354   1.366   1.375
  1.387   1.400   1.410   1.419   1.438   1.444   1.456   1.466
  1.491   1.494   1.519   1.533   1.553   1.554   1.561   1.570
  1.594   1.616   1.633   1.645   1.669   1.715   1.745   1.777
  1.945   2.070   2.113   2.273   2.298   2.413   2.442   2.452
  2.478   2.505   2.566   2.600   2.625   2.655   2.680   2.707
  2.721   2.749   2.775   2.789   2.816   2.854   2.872   2.905
  2.925   2.938   2.949   2.993   2.998   3.024   3.036   3.069
  3.080   3.092   3.125   3.141   3.152   3.163   3.179   3.193
  3.226   3.242   3.275   3.282   3.309   3.324   3.351   3.362
  3.379   3.392   3.417   3.430   3.465   3.488   3.526   3.535
  3.552   3.561   3.581   3.612   3.623   3.665   3.680   3.701
  3.714   3.723   3.735   3.746   3.774   3.791   3.809   3.851
  3.887   3.890   3.912   3.946   3.952   4.007   4.019   4.033
  4.046   4.061   4.084   4.086   4.117   4.152   4.159   4.177
  4.185   4.196   4.219   4.224   4.253   4.284   4.292   4.335
  4.348   4.374   4.417   4.426   4.442   4.458   4.468   4.481
  4.514   4.533   4.577   4.602   4.721   4.772   4.790   4.825
  4.862   4.954   5.064   5.144   5.175   5.193   5.250   5.350
  5.406   5.433   5.466   5.483   5.497   5.515   5.544   5.583
  5.641   5.649   5.753   5.878   6.449   6.956   7.105   7.179
  7.188   7.466   7.590  24.023  24.069  24.151  24.237  24.291
 49.790
 
 Beta MOs
 -- Occupied --
-19.564 -10.546 -10.513 -10.501 -10.498 -10.492  -1.133  -0.930
 -0.822  -0.776  -0.704  -0.647  -0.594  -0.551  -0.524  -0.514
 -0.502  -0.470  -0.462  -0.430  -0.416  -0.387  -0.374  -0.361
 -- Virtual --
 -0.038  -0.031  -0.017  -0.014  -0.002   0.010   0.012   0.015
  0.019   0.023   0.044   0.047   0.056   0.063   0.076   0.076
  0.088   0.098   0.105   0.117   0.118   0.121   0.124   0.129
  0.137   0.143   0.145   0.152   0.156   0.164   0.177   0.180
  0.201   0.203   0.210   0.223   0.224   0.232   0.243   0.251
  0.260   0.268   0.286   0.301   0.310   0.317   0.328   0.339
  0.349   0.370   0.381   0.402   0.433   0.446   0.450   0.462
  0.470   0.504   0.515   0.532   0.536   0.543   0.564   0.567
  0.575   0.585   0.594   0.601   0.603   0.608   0.618   0.624
  0.633   0.646   0.646   0.672   0.684   0.693   0.709   0.716
  0.725   0.753   0.779   0.795   0.801   0.851   0.864   0.892
  0.922   0.932   0.947   0.961   0.989   0.990   1.012   1.022
  1.048   1.054   1.079   1.091   1.107   1.118   1.144   1.158
  1.167   1.181   1.202   1.213   1.229   1.245   1.256   1.280
  1.282   1.305   1.310   1.328   1.341   1.348   1.365   1.369
  1.383   1.394   1.410   1.414   1.423   1.440   1.450   1.463
  1.479   1.494   1.498   1.525   1.550   1.558   1.562   1.570
  1.580   1.605   1.625   1.645   1.657   1.680   1.719   1.753
  1.787   1.948   2.078   2.116   2.275   2.300   2.425   2.452
  2.477   2.486   2.517   2.579   2.615   2.638   2.699   2.708
  2.736   2.746   2.782   2.792   2.819   2.861   2.894   2.902
  2.924   2.949   2.954   2.984   3.005   3.037   3.055   3.065
  3.097   3.107   3.129   3.151   3.160   3.174   3.189   3.195
  3.209   3.252   3.258   3.289   3.304   3.325   3.351   3.371
  3.385   3.400   3.424   3.443   3.450   3.492   3.519   3.543
  3.567   3.576   3.580   3.604   3.631   3.647   3.682   3.701
  3.713   3.727   3.734   3.744   3.766   3.797   3.807   3.825
  3.874   3.908   3.909   3.935   3.960   3.965   4.005   4.030
  4.039   4.054   4.072   4.087   4.098   4.132   4.163   4.170
  4.184   4.190   4.200   4.235   4.252   4.266   4.306   4.310
  4.347   4.372   4.401   4.442   4.453   4.461   4.487   4.496
  4.499   4.544   4.557   4.598   4.610   4.769   4.781   4.839
  4.872   4.927   4.999   5.119   5.173   5.177   5.203   5.287
  5.357   5.445   5.475   5.506   5.517   5.545   5.565   5.588
  5.590   5.650   5.659   5.759   5.879   6.447   6.956   7.108
  7.179   7.189   7.466   7.590  24.032  24.079  24.152  24.242
 24.300  49.791
 --------------------------------------------------------------
 
          Ground-State Mulliken Net Atomic Charges

     Atom                 Charge (a.u.)    Spin (a.u.)
  --------------------------------------------------------
      1 C                     0.439571      -0.096326
      2 C                    -0.346262       0.575602
      3 C                    -0.654631       0.007671
      4 O                    -0.280447       0.011659
      5 C                    -0.758043       0.603760
      6 C                    -0.825419       0.009669
      7 H                     0.248606       0.005738
      8 H                     0.277585      -0.009796
      9 H                     0.199781       0.003497
     10 H                     0.265179       0.002183
     11 H                     0.217635      -0.003704
     12 H                     0.178667      -0.087763
     13 H                     0.191210      -0.018042
     14 H                     0.202429       0.001284
     15 H                     0.213854      -0.000846
     16 H                     0.199000      -0.001574
     17 H                     0.231283      -0.003011
  --------------------------------------------------------
  Sum of atomic charges =     0.000000
  Sum of spin   charges =     1.000000

 -----------------------------------------------------------------
                    Cartesian Multipole Moments
 -----------------------------------------------------------------
    Charge (ESU x 10^10)
                 0.0000
    Dipole Moment (Debye)
         X      -1.7527      Y       0.1948      Z       0.6421
       Tot       1.8768
    Quadrupole Moments (Debye-Ang)
        XX     -46.9315     XY       2.5289     YY     -40.1444
        XZ       0.5336     YZ      -0.8002     ZZ     -38.9166
    Octapole Moments (Debye-Ang^2)
       XXX     -13.8171    XXY       5.6705    XYY       5.0985
       YYY      -6.8004    XXZ      -2.3981    XYZ      -2.4859
       YYZ       4.4862    XZZ       6.7380    YZZ      -3.6838
       ZZZ       2.5334
    Hexadecapole Moments (Debye-Ang^3)
      XXXX    -722.4672   XXXY      11.5088   XXYY    -155.3307
      XYYY      -8.8405   YYYY    -261.2708   XXXZ      -6.0731
      XXYZ      -9.5176   XYYZ       3.1529   YYYZ      -0.4428
      XXZZ    -125.6313   XYZZ      -3.0334   YYZZ     -60.5725
      XZZZ       3.5676   YZZZ      -2.2661   ZZZZ    -112.1579
 -----------------------------------------------------------------
 Calculating analytic gradient of the SCF energy
 Gradient of Coulomb and Exchange Energy
            1           2           3           4           5           6
    1   3.4711403  -0.3283356  -3.3065120 -10.5061685   3.3037874   2.8398928
    2  -1.2318803  -0.6560544  -2.0919727   4.1203291  -2.9354503   3.7361069
    3  -0.9294752   3.2087846   0.4652425   0.0868984  -0.8123466   0.0178491
            7           8           9          10          11          12
    1  -1.2991266  -0.1932824  -2.8619397   1.4424074   4.1807209   0.3670583
    2   0.9196395   2.2508261  -2.2813795   2.9488459  -1.1044686  -1.8424689
    3  -4.2675057   4.2454104   3.3530201  -3.4935824   1.3214187   1.2529307
           13          14          15          16          17
    1  -1.0501418   1.9685279   3.1732107  -1.0451364  -0.1561027
    2  -3.4225642  -0.1560574   0.7832420   3.8356910  -2.8723843
    3  -2.8513434   3.2247365  -2.2052215   0.5051277  -3.1219438
 Gradient of SCF Energy
            1           2           3           4           5           6
    1  -0.0047161  -0.0004381  -0.0003025   0.0043371   0.0029111  -0.0000519
    2  -0.0011935   0.0061625   0.0000301   0.0034273   0.0002599  -0.0004517
    3  -0.0026660   0.0020866   0.0010626  -0.0046119   0.0017131   0.0003158
            7           8           9          10          11          12
    1  -0.0004476  -0.0000401  -0.0007025  -0.0028347   0.0019738  -0.0003806
    2   0.0012216   0.0003325  -0.0022455  -0.0010728  -0.0009350  -0.0032313
    3  -0.0018457   0.0017904   0.0022235   0.0027741   0.0004030  -0.0024517
           13          14          15          16          17
    1  -0.0004198   0.0004404   0.0014678  -0.0010676   0.0002713
    2  -0.0012345  -0.0006068  -0.0001708   0.0015012  -0.0017932
    3  -0.0002715   0.0017923  -0.0010305   0.0002076  -0.0014915
 Max gradient component =       6.162E-03
 RMS gradient           =       2.044E-03
 Gradient time:  CPU 139.36 s  wall 139.44 s
 Geometry Optimization Parameters
   NAtoms,    NIC,     NZ,  NCons,   NDum,   NFix, NCnnct, MaxDiis
       17     128       0       0       0       0       0       0

 Cartesian Hessian Update
 Hessian Updated using Powell/Murtagh-Sargent Update
  Mixing factors:     0.000252 Powell
                      0.999748 Murtagh-Sargent


** GEOMETRY OPTIMIZATION IN DELOCALIZED INTERNAL COORDINATES **
   Searching for a Transition State

   Optimization Cycle:   2

                       Coordinates (Angstroms)
     ATOM              X           Y           Z
      1  C        -0.865670   -0.129823    0.339994
      2  C         0.241413    0.183565   -0.674903
      3  C         1.600485    0.539391   -0.137812
      4  O         2.344114   -0.600221    0.286308
      5  C        -1.403010    1.295643    0.248358
      6  C        -1.849762   -1.200599   -0.106973
      7  H        -0.469864   -0.367556    1.336250
      8  H         0.224653   -0.397674   -1.600093
      9  H         2.218047    1.006085   -0.906829
     10  H         1.833277   -1.066657    0.963165
     11  H        -2.430922    1.427736   -0.087903
     12  H        -0.510441    1.355036   -0.824920
     13  H        -1.049740    2.013031    0.986842
     14  H        -2.275382   -0.941835   -1.083834
     15  H        -2.676665   -1.299005    0.603181
     16  H        -1.361446   -2.175326   -0.201952
     17  H         1.497369    1.253469    0.693924
   Point Group: c1    Number of degrees of freedom:    45


   Energy is   -272.136326081

 GETINT wrote B to file, NVib is           45
 Hessian Updated using Powell/Murtagh-Sargent Update
  Mixing factors:     0.994709 Powell
                      0.005291 Murtagh-Sargent

 43 Hessian modes will be used to form the next step
  Hessian Eigenvalues:
     0.002041    0.006345    0.008646    0.012296    0.026652    0.029269
     0.039099    0.040304    0.041161    0.050314    0.054738    0.056485
     0.057804    0.059765    0.066242    0.081284    0.091794    0.105067
     0.108604    0.113684    0.117692    0.139934    0.146037    0.151290
     0.157272    0.159999    0.160000    0.220439    0.264730    0.273796
     0.302276    0.319562    0.335677    0.339003    0.340708    0.343075
     0.343182    0.344981    0.346845    0.348661    0.349891    0.416685
     0.538232
**WARNING** Hessian does not have the Desired Local Structure

 Transition State Search - Taking P-RFO Step
 Searching for Lamda that Maximizes Along the Lowest mode
 Value Taken    Lamda =   0.00216938
 Searching for Lamda that Minimizes Along All other modes
 Value Taken    Lamda =  -0.00073827
 Calculated Step too Large.  Step scaled by  0.072969
 Step Taken.  Stepsize is  0.300000

                             Maximum     Tolerance    Cnvgd?
         Gradient           0.004770      0.000300      NO
         Displacement       0.116249      0.001200      NO
         Energy change      0.000175      0.000001      NO


 New Cartesian Coordinates Obtained by Inverse Iteration

 Displacement from previous Coordinates is:  0.402728
 ----------------------------------------------------
       Standard Nuclear Orientation (Angstroms)
    I     Atom         X            Y            Z
 ----------------------------------------------------
    1      C      -0.862192    -0.153212     0.342503
    2      C       0.242383     0.153070    -0.676548
    3      C       1.587812     0.557404    -0.140624
    4      O       2.355214    -0.552707     0.317644
    5      C      -1.375130     1.282094     0.264233
    6      C      -1.868261    -1.192012    -0.126500
    7      H      -0.473866    -0.419345     1.335219
    8      H       0.246939    -0.452730    -1.586561
    9      H       2.198408     1.019658    -0.918211
   10      H       1.851145    -1.014731     1.002132
   11      H      -2.417498     1.437673    -0.014085
   12      H      -0.533864     1.306935    -0.852552
   13      H      -0.961483     1.998141     0.971648
   14      H      -2.284906    -0.906168    -1.100045
   15      H      -2.699096    -1.283708     0.580086
   16      H      -1.400827    -2.175360    -0.237238
   17      H       1.461674     1.290258     0.671702
 ----------------------------------------------------
 Molecular Point Group                 C1    NOp =  1
 Largest Abelian Subgroup              C1    NOp =  1
 Nuclear Repulsion Energy =   248.2083954640 hartrees
 There are       25 alpha and       24 beta electrons
 Applying Cartesian multipole field
    Component          Value
    ---------          -----
     (2,0,0)        1.00000E-11
     (0,2,0)        2.00000E-11
     (0,0,2)       -3.00000E-11
 Nucleus-field energy     =     0.0000000060 hartrees
 Requested basis set is non-standard
 There are 138 shells and 314 basis functions
 A cutoff of  1.0D-11 yielded   9023 shell pairs
 There are     46371 function pairs (     55645 Cartesian)
 Smallest overlap matrix eigenvalue = 1.25E-05
 Guess MOs from SCF MO coefficient file
Reading MOs from coefficient file
Reading MOs from coefficient file
 An unrestricted hybrid HF-DFT SCF calculation will be
 performed using Pulay DIIS extrapolation
 Exchange:     0.5679 Hartree-Fock + 1.0000 M08SO
 SCF converges when DIIS error is below 1.0E-08
Geometry optimization detected.  Setting ReadMinima to 0
Setting SaveMinima to 0
 ---------------------------------------
  Cycle       Energy         DIIS Error
 ---------------------------------------
    1    -272.1373719895      5.06E-04
    2    -272.1359829119      6.17E-05
    3    -272.1361096665      2.23E-05
    4    -272.1361210801      1.36E-05
    5    -272.1361244138      3.51E-06
    6    -272.1361247076      1.16E-06
    7    -272.1361247707      5.98E-07
    8    -272.1361247829      1.56E-07
    9    -272.1361247843      5.18E-08
   10    -272.1361247847      2.03E-08
   11    -272.1361247846      8.29E-09 Convergence criterion met
 ---------------------------------------
 <S^2> = 0.7610
 SCF time:  CPU 990.59 s  wall 997.43 s
 SCF   energy in the final basis set = -272.1361247846
 Total energy in the final basis set = -272.1361247846
 Analysis of SCF Wavefunction
 
 --------------------------------------------------------------
                    Orbital Energies (a.u.)
 --------------------------------------------------------------
 
 Alpha MOs
 -- Occupied --
-19.565 -10.546 -10.513 -10.512 -10.510 -10.492  -1.136  -0.940
 -0.825  -0.783  -0.713  -0.653  -0.597  -0.569  -0.530  -0.521
 -0.506  -0.471  -0.467  -0.436  -0.417  -0.393  -0.383  -0.365
 -0.232
 -- Virtual --
 -0.027  -0.016  -0.012  -0.004   0.012   0.016   0.020   0.022
  0.027   0.046   0.052   0.061   0.066   0.075   0.080   0.094
  0.102   0.106   0.118   0.122   0.122   0.128   0.131   0.140
  0.146   0.148   0.156   0.159   0.165   0.171   0.179   0.200
  0.202   0.211   0.222   0.223   0.230   0.245   0.250   0.258
  0.265   0.280   0.296   0.308   0.317   0.328   0.337   0.343
  0.366   0.377   0.400   0.432   0.445   0.450   0.461   0.470
  0.498   0.516   0.520   0.532   0.537   0.562   0.565   0.571
  0.580   0.587   0.592   0.598   0.602   0.610   0.617   0.627
  0.634   0.639   0.657   0.682   0.691   0.707   0.717   0.719
  0.746   0.774   0.788   0.799   0.846   0.858   0.890   0.913
  0.929   0.945   0.954   0.981   0.990   1.013   1.022   1.046
  1.048   1.069   1.087   1.106   1.115   1.134   1.149   1.168
  1.180   1.194   1.206   1.226   1.237   1.252   1.269   1.274
  1.298   1.302   1.316   1.330   1.343   1.359   1.366   1.371
  1.390   1.401   1.409   1.425   1.434   1.448   1.456   1.468
  1.491   1.493   1.524   1.538   1.552   1.553   1.563   1.569
  1.593   1.617   1.628   1.650   1.677   1.715   1.740   1.781
  1.942   2.070   2.113   2.274   2.302   2.416   2.444   2.460
  2.483   2.505   2.562   2.594   2.628   2.658   2.686   2.709
  2.721   2.751   2.773   2.792   2.820   2.850   2.873   2.898
  2.923   2.934   2.943   2.990   2.997   3.023   3.031   3.073
  3.081   3.096   3.128   3.146   3.155   3.161   3.175   3.195
  3.228   3.251   3.274   3.283   3.311   3.328   3.355   3.365
  3.381   3.400   3.422   3.433   3.468   3.488   3.524   3.535
  3.549   3.562   3.579   3.611   3.619   3.669   3.684   3.706
  3.709   3.730   3.735   3.743   3.773   3.791   3.806   3.850
  3.882   3.897   3.913   3.948   3.950   4.011   4.017   4.030
  4.046   4.061   4.084   4.093   4.115   4.151   4.157   4.179
  4.187   4.201   4.218   4.233   4.259   4.279   4.294   4.336
  4.348   4.370   4.411   4.424   4.444   4.458   4.471   4.487
  4.528   4.533   4.583   4.608   4.717   4.768   4.801   4.830
  4.861   4.948   5.071   5.144   5.175   5.192   5.257   5.350
  5.403   5.435   5.469   5.486   5.502   5.515   5.541   5.581
  5.635   5.649   5.753   5.878   6.449   6.955   7.107   7.179
  7.189   7.467   7.590  24.023  24.068  24.151  24.239  24.292
 49.791
 
 Beta MOs
 -- Occupied --
-19.564 -10.546 -10.513 -10.501 -10.498 -10.492  -1.133  -0.931
 -0.822  -0.775  -0.704  -0.647  -0.595  -0.552  -0.525  -0.513
 -0.503  -0.470  -0.461  -0.430  -0.416  -0.387  -0.374  -0.361
 -- Virtual --
 -0.038  -0.031  -0.017  -0.014  -0.003   0.010   0.012   0.015
  0.019   0.023   0.044   0.047   0.057   0.063   0.074   0.076
  0.089   0.099   0.104   0.116   0.118   0.121   0.125   0.130
  0.137   0.143   0.144   0.153   0.157   0.164   0.175   0.180
  0.202   0.204   0.212   0.222   0.224   0.230   0.244   0.249
  0.260   0.268   0.284   0.300   0.309   0.318   0.328   0.340
  0.347   0.369   0.382   0.402   0.433   0.446   0.451   0.463
  0.470   0.503   0.518   0.532   0.537   0.544   0.563   0.568
  0.575   0.585   0.593   0.599   0.601   0.608   0.618   0.624
  0.636   0.645   0.647   0.670   0.685   0.694   0.713   0.718
  0.725   0.753   0.777   0.799   0.801   0.849   0.860   0.891
  0.916   0.933   0.949   0.959   0.984   0.994   1.016   1.026
  1.050   1.053   1.075   1.090   1.109   1.118   1.140   1.156
  1.171   1.184   1.201   1.212   1.230   1.244   1.260   1.278
  1.280   1.306   1.309   1.326   1.337   1.349   1.369   1.369
  1.380   1.397   1.411   1.412   1.429   1.438   1.454   1.464
  1.480   1.493   1.497   1.531   1.554   1.557   1.560   1.575
  1.580   1.605   1.625   1.640   1.661   1.689   1.719   1.747
  1.791   1.945   2.079   2.116   2.275   2.304   2.425   2.455
  2.486   2.492   2.517   2.576   2.609   2.641   2.704   2.711
  2.737   2.747   2.784   2.791   2.824   2.863   2.893   2.903
  2.923   2.943   2.949   2.980   3.005   3.035   3.048   3.063
  3.098   3.107   3.134   3.153   3.166   3.173   3.191   3.196
  3.211   3.252   3.271   3.291   3.303   3.329   3.351   3.372
  3.390   3.401   3.431   3.445   3.457   3.497   3.515   3.542
  3.564   3.576   3.583   3.602   3.632   3.645   3.687   3.703
  3.718   3.725   3.739   3.743   3.768   3.796   3.808   3.821
  3.873   3.903   3.918   3.936   3.957   3.968   4.005   4.028
  4.039   4.059   4.074   4.092   4.104   4.127   4.159   4.169
  4.186   4.191   4.202   4.241   4.249   4.271   4.303   4.316
  4.349   4.375   4.395   4.441   4.452   4.459   4.494   4.496
  4.502   4.548   4.567   4.605   4.614   4.772   4.788   4.838
  4.876   4.926   4.997   5.122   5.174   5.181   5.201   5.292
  5.356   5.445   5.477   5.506   5.518   5.543   5.567   5.587
  5.592   5.647   5.654   5.759   5.880   6.447   6.956   7.109
  7.180   7.190   7.467   7.590  24.031  24.078  24.152  24.244
 24.302  49.792
 --------------------------------------------------------------
 
          Ground-State Mulliken Net Atomic Charges

     Atom                 Charge (a.u.)    Spin (a.u.)
  --------------------------------------------------------
      1 C                     0.497059      -0.099952
      2 C                    -0.389247       0.579966
      3 C                    -0.648607       0.006914
      4 O                    -0.282641       0.011241
      5 C                    -0.779414       0.604996
      6 C                    -0.833377       0.011089
      7 H                     0.246081       0.005958
      8 H                     0.280095      -0.008948
      9 H                     0.199918       0.003746
     10 H                     0.264621       0.002515
     11 H                     0.224223      -0.002449
     12 H                     0.183513      -0.090148
     13 H                     0.188470      -0.019529
     14 H                     0.203959       0.001033
     15 H                     0.214442      -0.000972
     16 H                     0.200707      -0.001646
     17 H                     0.230198      -0.003814
  --------------------------------------------------------
  Sum of atomic charges =     0.000000
  Sum of spin   charges =     1.000000

 -----------------------------------------------------------------
                    Cartesian Multipole Moments
 -----------------------------------------------------------------
    Charge (ESU x 10^10)
                 0.0000
    Dipole Moment (Debye)
         X      -1.7607      Y       0.1734      Z       0.6216
       Tot       1.8752
    Quadrupole Moments (Debye-Ang)
        XX     -47.0007     XY       2.4095     YY     -40.0777
        XZ       0.4150     YZ      -0.7731     ZZ     -38.9284
    Octapole Moments (Debye-Ang^2)
       XXX     -14.6599    XXY       5.2124    XYY       5.1771
       YYY      -6.6317    XXZ      -2.5480    XYZ      -2.4628
       YYZ       4.1414    XZZ       7.0036    YZZ      -3.9213
       ZZZ       2.3034
    Hexadecapole Moments (Debye-Ang^3)
      XXXX    -722.9964   XXXY       5.6413   XXYY    -154.0617
      XYYY     -12.2832   YYYY    -257.1875   XXXZ      -9.3303
      XXYZ      -9.8306   XYYZ       2.4836   YYYZ      -1.2412
      XXZZ    -125.8281   XYZZ      -4.4166   YYZZ     -60.1932
      XZZZ       2.1406   YZZZ      -3.7568   ZZZZ    -113.8027
 -----------------------------------------------------------------
 Calculating analytic gradient of the SCF energy
 Gradient of Coulomb and Exchange Energy
            1           2           3           4           5           6
    1   3.2691121  -0.4397318  -3.1797659 -10.6034200   3.5196473   2.9424932
    2  -1.1986722  -0.4343246  -2.0877510   3.9108082  -2.9866372   3.7315743
    3  -1.1351132   3.5203751   0.4690749  -0.0859685  -0.8576749   0.0828762
            7           8           9          10          11          12
    1  -1.2396787  -0.2550028  -2.8281524   1.3900331   4.2086390   0.4309258
    2   1.0315246   2.3463959  -2.2656117   2.9035132  -1.1677749  -1.7308585
    3  -4.2276230   4.1879589   3.4095353  -3.5634190   1.1155670   1.2794333
           13          14          15          16          17
    1  -1.2923232   1.9543955   3.1964165  -0.9761941  -0.0973934
    2  -3.4574016  -0.2352237   0.7499226   3.8460161  -2.9554994
    3  -2.7605677   3.2234168  -2.1816074   0.5730196  -3.0492836
 Gradient of SCF Energy
            1           2           3           4           5           6
    1  -0.0052233   0.0002379  -0.0005025   0.0039134   0.0040080   0.0002981
    2  -0.0018512   0.0066969  -0.0000018   0.0031739   0.0009693  -0.0000166
    3  -0.0029289   0.0026469   0.0009624  -0.0043666   0.0024470   0.0003814
            7           8           9          10          11          12
    1  -0.0004563  -0.0000539  -0.0007054  -0.0026176   0.0017625  -0.0012419
    2   0.0008767   0.0003871  -0.0020339  -0.0010174  -0.0007884  -0.0040770
    3  -0.0014965   0.0014407   0.0020924   0.0026268   0.0000565  -0.0032738
           13          14          15          16          17
    1  -0.0005505   0.0003229   0.0014759  -0.0009083   0.0002409
    2  -0.0014268  -0.0006635  -0.0000833   0.0015364  -0.0016804
    3  -0.0002670   0.0016224  -0.0009370   0.0002348  -0.0012416
 Max gradient component =       6.697E-03
 RMS gradient           =       2.161E-03
 Gradient time:  CPU 129.37 s  wall 129.49 s
 Geometry Optimization Parameters
   NAtoms,    NIC,     NZ,  NCons,   NDum,   NFix, NCnnct, MaxDiis
       17     128       0       0       0       0       0       0

 Cartesian Hessian Update
 Hessian Updated using Powell/Murtagh-Sargent Update
  Mixing factors:     0.976637 Powell
                      0.023363 Murtagh-Sargent


** GEOMETRY OPTIMIZATION IN DELOCALIZED INTERNAL COORDINATES **
   Searching for a Transition State

   Optimization Cycle:   3

                       Coordinates (Angstroms)
     ATOM              X           Y           Z
      1  C        -0.862192   -0.153212    0.342503
      2  C         0.242383    0.153070   -0.676548
      3  C         1.587812    0.557404   -0.140624
      4  O         2.355214   -0.552707    0.317644
      5  C        -1.375130    1.282094    0.264233
      6  C        -1.868261   -1.192012   -0.126500
      7  H        -0.473866   -0.419345    1.335219
      8  H         0.246939   -0.452730   -1.586561
      9  H         2.198408    1.019658   -0.918211
     10  H         1.851145   -1.014731    1.002132
     11  H        -2.417498    1.437673   -0.014085
     12  H        -0.533864    1.306935   -0.852552
     13  H        -0.961483    1.998141    0.971648
     14  H        -2.284906   -0.906168   -1.100045
     15  H        -2.699096   -1.283708    0.580086
     16  H        -1.400827   -2.175360   -0.237238
     17  H         1.461674    1.290258    0.671702
   Point Group: c1    Number of degrees of freedom:    45


   Energy is   -272.136124785

 GETINT wrote B to file, NVib is           45
 Hessian Updated using Powell/Murtagh-Sargent Update
  Mixing factors:     0.998666 Powell
                      0.001334 Murtagh-Sargent

 44 Hessian modes will be used to form the next step
  Hessian Eigenvalues:
     0.002017    0.006345    0.008644    0.012296    0.026663    0.029274
     0.039099    0.040353    0.041257    0.050315    0.054751    0.056486
     0.057804    0.059765    0.066294    0.081287    0.091803    0.105067
     0.108606    0.113690    0.117696    0.139935    0.146056    0.151291
     0.157292    0.159999    0.160000    0.160016    0.220439    0.264731
     0.273799    0.302330    0.319578    0.335678    0.339011    0.340709
     0.343075    0.343182    0.344985    0.346844    0.348664    0.349897
     0.416685    0.538232
**WARNING** Hessian does not have the Desired Local Structure

 Transition State Search - Taking P-RFO Step
 Searching for Lamda that Maximizes Along the Lowest mode
 Value Taken    Lamda =   0.00234732
 Searching for Lamda that Minimizes Along All other modes
 Value Taken    Lamda =  -0.00080729
 Calculated Step too Large.  Step scaled by  0.112402
 Step Taken.  Stepsize is  0.300000

                             Maximum     Tolerance    Cnvgd?
         Gradient           0.004433      0.000300      NO
         Displacement       0.115604      0.001200      NO
         Energy change      0.000201      0.000001      NO


 New Cartesian Coordinates Obtained by Inverse Iteration

 Displacement from previous Coordinates is:  0.411538
 ----------------------------------------------------
       Standard Nuclear Orientation (Angstroms)
    I     Atom         X            Y            Z
 ----------------------------------------------------
    1      C      -0.857924    -0.176914     0.348037
    2      C       0.243390     0.120945    -0.676149
    3      C       1.575351     0.574948    -0.145703
    4      O       2.366023    -0.503136     0.348038
    5      C      -1.348820     1.266752     0.281185
    6      C      -1.886031    -1.182003    -0.146900
    7      H      -0.480166    -0.472501     1.336880
    8      H       0.269263    -0.510085    -1.568844
    9      H       2.178626     1.030331    -0.933632
   10      H       1.868879    -0.959401     1.040747
   11      H      -2.402429     1.444564     0.063749
   12      H      -0.556439     1.259766    -0.872495
   13      H      -0.876671     1.981861     0.952397
   14      H      -2.287548    -0.867244    -1.118287
   15      H      -2.724693    -1.265860     0.551857
   16      H      -1.441692    -2.174565    -0.272710
   17      H       1.427336     1.327799     0.644634
 ----------------------------------------------------
 Molecular Point Group                 C1    NOp =  1
 Largest Abelian Subgroup              C1    NOp =  1
 Nuclear Repulsion Energy =   248.4754367003 hartrees
 There are       25 alpha and       24 beta electrons
 Applying Cartesian multipole field
    Component          Value
    ---------          -----
     (2,0,0)        1.00000E-11
     (0,2,0)        2.00000E-11
     (0,0,2)       -3.00000E-11
 Nucleus-field energy     =     0.0000000059 hartrees
 Requested basis set is non-standard
 There are 138 shells and 314 basis functions
 A cutoff of  1.0D-11 yielded   9031 shell pairs
 There are     46427 function pairs (     55723 Cartesian)
 Smallest overlap matrix eigenvalue = 1.22E-05
 Guess MOs from SCF MO coefficient file
Reading MOs from coefficient file
Reading MOs from coefficient file
 An unrestricted hybrid HF-DFT SCF calculation will be
 performed using Pulay DIIS extrapolation
 Exchange:     0.5679 Hartree-Fock + 1.0000 M08SO
 SCF converges when DIIS error is below 1.0E-08
Geometry optimization detected.  Setting ReadMinima to 0
Setting SaveMinima to 0
 ---------------------------------------
  Cycle       Energy         DIIS Error
 ---------------------------------------
    1    -272.1364884845      5.24E-04
    2    -272.1356875265      6.34E-05
    3    -272.1358220479      2.38E-05
    4    -272.1358343005      1.52E-05
    5    -272.1358382858      3.84E-06
    6    -272.1358386397      1.31E-06
    7    -272.1358387222      6.42E-07
    8    -272.1358387394      1.70E-07
    9    -272.1358387416      6.83E-08
   10    -272.1358387421      3.23E-08
   11    -272.1358387420      1.54E-08
   12    -272.1358387417      6.55E-09 Convergence criterion met
 ---------------------------------------
 <S^2> = 0.7611
 SCF time:  CPU 1087.18 s  wall 1093.03 s
 SCF   energy in the final basis set = -272.1358387417
 Total energy in the final basis set = -272.1358387417
 Analysis of SCF Wavefunction
 
 --------------------------------------------------------------
                    Orbital Energies (a.u.)
 --------------------------------------------------------------
 
 Alpha MOs
 -- Occupied --
-19.565 -10.546 -10.514 -10.512 -10.511 -10.492  -1.136  -0.941
 -0.825  -0.782  -0.713  -0.652  -0.597  -0.570  -0.530  -0.520
 -0.508  -0.471  -0.465  -0.435  -0.417  -0.393  -0.384  -0.364
 -0.234
 -- Virtual --
 -0.027  -0.016  -0.012  -0.004   0.012   0.015   0.020   0.023
  0.026   0.046   0.052   0.061   0.067   0.074   0.080   0.094
  0.103   0.105   0.117   0.122   0.122   0.129   0.132   0.140
  0.145   0.148   0.156   0.159   0.165   0.170   0.179   0.203
  0.203   0.211   0.221   0.223   0.229   0.245   0.248   0.259
  0.265   0.278   0.295   0.308   0.319   0.327   0.338   0.342
  0.364   0.378   0.400   0.432   0.443   0.452   0.462   0.471
  0.498   0.516   0.521   0.534   0.538   0.561   0.565   0.571
  0.579   0.584   0.592   0.596   0.603   0.611   0.616   0.625
  0.637   0.640   0.657   0.682   0.692   0.709   0.718   0.722
  0.746   0.771   0.789   0.800   0.844   0.854   0.889   0.907
  0.931   0.945   0.953   0.974   0.993   1.017   1.025   1.045
  1.049   1.065   1.088   1.107   1.118   1.128   1.147   1.173
  1.183   1.192   1.204   1.226   1.236   1.254   1.267   1.273
  1.298   1.301   1.315   1.323   1.345   1.364   1.364   1.370
  1.392   1.402   1.410   1.428   1.433   1.451   1.455   1.471
  1.487   1.496   1.533   1.541   1.549   1.551   1.569   1.570
  1.594   1.618   1.623   1.652   1.689   1.712   1.737   1.785
  1.939   2.071   2.113   2.274   2.305   2.416   2.446   2.472
  2.488   2.504   2.556   2.591   2.629   2.661   2.690   2.710
  2.721   2.750   2.770   2.796   2.823   2.846   2.873   2.891
  2.922   2.930   2.940   2.987   2.995   3.020   3.027   3.076
  3.080   3.099   3.131   3.148   3.154   3.160   3.175   3.196
  3.227   3.260   3.271   3.289   3.314   3.337   3.357   3.365
  3.383   3.411   3.427   3.438   3.470   3.489   3.522   3.530
  3.549   3.562   3.576   3.611   3.616   3.672   3.684   3.702
  3.714   3.734   3.740   3.742   3.774   3.786   3.811   3.846
  3.877   3.902   3.915   3.949   3.951   4.010   4.019   4.027
  4.040   4.060   4.086   4.095   4.117   4.150   4.157   4.177
  4.185   4.207   4.216   4.243   4.268   4.274   4.298   4.338
  4.346   4.369   4.404   4.418   4.447   4.458   4.472   4.496
  4.531   4.544   4.589   4.615   4.715   4.761   4.814   4.832
  4.859   4.942   5.079   5.144   5.175   5.191   5.267   5.349
  5.402   5.434   5.471   5.489   5.506   5.516   5.540   5.579
  5.628   5.648   5.753   5.878   6.449   6.954   7.109   7.179
  7.189   7.468   7.590  24.022  24.066  24.150  24.239  24.292
 49.792
 
 Beta MOs
 -- Occupied --
-19.564 -10.546 -10.513 -10.502 -10.499 -10.492  -1.133  -0.932
 -0.822  -0.774  -0.705  -0.647  -0.595  -0.553  -0.525  -0.513
 -0.504  -0.469  -0.459  -0.430  -0.416  -0.387  -0.375  -0.360
 -- Virtual --
 -0.039  -0.031  -0.018  -0.014  -0.003   0.010   0.012   0.015
  0.020   0.023   0.044   0.047   0.057   0.064   0.073   0.076
  0.089   0.100   0.104   0.116   0.118   0.121   0.126   0.130
  0.137   0.142   0.145   0.153   0.158   0.164   0.174   0.181
  0.203   0.206   0.213   0.221   0.223   0.230   0.245   0.247
  0.261   0.269   0.282   0.299   0.309   0.319   0.328   0.341
  0.346   0.367   0.383   0.402   0.432   0.444   0.453   0.463
  0.472   0.503   0.521   0.532   0.537   0.546   0.563   0.568
  0.576   0.585   0.590   0.598   0.600   0.609   0.618   0.624
  0.638   0.643   0.649   0.669   0.684   0.695   0.714   0.722
  0.725   0.754   0.774   0.800   0.804   0.847   0.856   0.890
  0.909   0.935   0.949   0.958   0.978   0.998   1.019   1.029
  1.051   1.053   1.070   1.091   1.110   1.120   1.135   1.153
  1.176   1.188   1.199   1.210   1.230   1.243   1.263   1.275
  1.280   1.306   1.310   1.326   1.332   1.351   1.369   1.372
  1.381   1.398   1.411   1.413   1.433   1.437   1.458   1.464
  1.480   1.490   1.501   1.540   1.554   1.555   1.559   1.580
  1.583   1.607   1.625   1.635   1.663   1.701   1.717   1.744
  1.795   1.942   2.079   2.116   2.275   2.307   2.424   2.457
  2.494   2.502   2.518   2.571   2.604   2.642   2.710   2.714
  2.735   2.749   2.782   2.790   2.828   2.862   2.890   2.904
  2.922   2.938   2.950   2.978   3.004   3.031   3.040   3.059
  3.099   3.106   3.138   3.154   3.167   3.172   3.197   3.199
  3.213   3.250   3.286   3.287   3.307   3.336   3.358   3.371
  3.393   3.399   3.442   3.445   3.464   3.503   3.513   3.542
  3.557   3.576   3.581   3.600   3.632   3.643   3.688   3.704
  3.720   3.727   3.740   3.751   3.770   3.792   3.806   3.825
  3.867   3.898   3.926   3.933   3.958   3.971   4.005   4.024
  4.039   4.057   4.075   4.096   4.107   4.126   4.158   4.165
  4.187   4.190   4.207   4.242   4.251   4.279   4.297   4.327
  4.351   4.377   4.389   4.437   4.451   4.459   4.494   4.501
  4.506   4.547   4.583   4.610   4.621   4.773   4.796   4.838
  4.880   4.922   4.995   5.125   5.174   5.188   5.200   5.300
  5.356   5.445   5.477   5.507   5.518   5.541   5.569   5.585
  5.595   5.640   5.652   5.759   5.880   6.447   6.955   7.111
  7.180   7.191   7.468   7.590  24.031  24.076  24.151  24.245
 24.302  49.793
 --------------------------------------------------------------
 
          Ground-State Mulliken Net Atomic Charges

     Atom                 Charge (a.u.)    Spin (a.u.)
  --------------------------------------------------------
      1 C                     0.540622      -0.103696
      2 C                    -0.423791       0.587190
      3 C                    -0.644451       0.005786
      4 O                    -0.285216       0.011083
      5 C                    -0.794392       0.604340
      6 C                    -0.838064       0.012536
      7 H                     0.244872       0.006058
      8 H                     0.283265      -0.008547
      9 H                     0.200351       0.003873
     10 H                     0.264259       0.002865
     11 H                     0.230448      -0.001366
     12 H                     0.184161      -0.092979
     13 H                     0.186213      -0.020598
     14 H                     0.205839       0.000765
     15 H                     0.214592      -0.001026
     16 H                     0.201761      -0.001640
     17 H                     0.229530      -0.004643
  --------------------------------------------------------
  Sum of atomic charges =     0.000000
  Sum of spin   charges =     1.000000

 -----------------------------------------------------------------
                    Cartesian Multipole Moments
 -----------------------------------------------------------------
    Charge (ESU x 10^10)
                 0.0000
    Dipole Moment (Debye)
         X      -1.7651      Y       0.1517      Z       0.6041
       Tot       1.8718
    Quadrupole Moments (Debye-Ang)
        XX     -47.0625     XY       2.2806     YY     -40.0183
        XZ       0.2782     YZ      -0.7413     ZZ     -38.9462
    Octapole Moments (Debye-Ang^2)
       XXX     -15.4771    XXY       4.7457    XYY       5.2303
       YYY      -6.4402    XXZ      -2.6455    XYZ      -2.4727
       YYZ       3.7681    XZZ       7.2754    YZZ      -4.1504
       ZZZ       2.0667
    Hexadecapole Moments (Debye-Ang^3)
      XXXX    -723.6418   XXXY      -0.3197   XXYY    -152.8439
      XYYY     -15.6861   YYYY    -252.9873   XXXZ     -12.5997
      XXYZ     -10.0899   XYYZ       1.7721   YYYZ      -2.1095
      XXZZ    -125.9849   XYZZ      -5.8424   YYZZ     -59.8612
      XZZZ       0.8527   YZZZ      -5.3719   ZZZZ    -115.5049
 -----------------------------------------------------------------
 Calculating analytic gradient of the SCF energy
 Gradient of Coulomb and Exchange Energy
            1           2           3           4           5           6
    1   2.9953429  -0.4995009  -3.0481508 -10.7008885   3.7766542   3.0518050
    2  -1.1311865  -0.2215580  -2.0721681   3.6845174  -3.0467965   3.7062725
    3  -1.4526776   3.8971802   0.4744558  -0.2588819  -0.8841159   0.1649953
            7           8           9          10          11          12
    1  -1.1682120  -0.3210414  -2.7904615   1.3394818   4.2351608   0.4509800
    2   1.1577290   2.4600497  -2.2358056   2.8487131  -1.2203680  -1.6310122
    3  -4.1925792   4.1194600   3.4676618  -3.6360355   0.8904972   1.2786987
           13          14          15          16          17
    1  -1.5342927   1.9226305   3.2351022  -0.8969300  -0.0476796
    2  -3.4938451  -0.3210055   0.7125125   3.8590318  -3.0550806
    3  -2.6353628   3.2283752  -2.1396255   0.6422850  -2.9643310
 Gradient of SCF Energy
            1           2           3           4           5           6
    1  -0.0048484   0.0002715  -0.0006727   0.0034120   0.0040373   0.0003631
    2  -0.0019622   0.0068885   0.0001492   0.0028346   0.0012407   0.0002932
    3  -0.0024712   0.0023726   0.0009002  -0.0039721   0.0028752   0.0001450
            7           8           9          10          11          12
    1  -0.0005972   0.0000473  -0.0005824  -0.0023216   0.0015812  -0.0013837
    2   0.0004630   0.0003233  -0.0017345  -0.0008972  -0.0006622  -0.0047905
    3  -0.0012794   0.0013104   0.0019380   0.0023692  -0.0000192  -0.0037878
           13          14          15          16          17
    1  -0.0002892   0.0002102   0.0013156  -0.0007661   0.0002229
    2  -0.0012464  -0.0007224  -0.0000697   0.0014144  -0.0015217
    3  -0.0002261   0.0014599  -0.0008334   0.0002183  -0.0009996
 Max gradient component =       6.889E-03
 RMS gradient           =       2.113E-03
 Gradient time:  CPU 129.06 s  wall 129.00 s
 Geometry Optimization Parameters
   NAtoms,    NIC,     NZ,  NCons,   NDum,   NFix, NCnnct, MaxDiis
       17     128       0       0       0       0       0       0

 Cartesian Hessian Update
 Hessian Updated using Powell/Murtagh-Sargent Update
  Mixing factors:     0.993588 Powell
                      0.006412 Murtagh-Sargent


** GEOMETRY OPTIMIZATION IN DELOCALIZED INTERNAL COORDINATES **
   Searching for a Transition State

   Optimization Cycle:   4

                       Coordinates (Angstroms)
     ATOM              X           Y           Z
      1  C        -0.857924   -0.176914    0.348037
      2  C         0.243390    0.120945   -0.676149
      3  C         1.575351    0.574948   -0.145703
      4  O         2.366023   -0.503136    0.348038
      5  C        -1.348820    1.266752    0.281185
      6  C        -1.886031   -1.182003   -0.146900
      7  H        -0.480166   -0.472501    1.336880
      8  H         0.269263   -0.510085   -1.568844
      9  H         2.178626    1.030331   -0.933632
     10  H         1.868879   -0.959401    1.040747
     11  H        -2.402429    1.444564    0.063749
     12  H        -0.556439    1.259766   -0.872495
     13  H        -0.876671    1.981861    0.952397
     14  H        -2.287548   -0.867244   -1.118287
     15  H        -2.724693   -1.265860    0.551857
     16  H        -1.441692   -2.174565   -0.272710
     17  H         1.427336    1.327799    0.644634
   Point Group: c1    Number of degrees of freedom:    45


   Energy is   -272.135838742

 GETINT wrote B to file, NVib is           45
 Hessian Updated using Powell/Murtagh-Sargent Update
  Mixing factors:     0.982089 Powell
                      0.017911 Murtagh-Sargent

 45 Hessian modes will be used to form the next step
  Hessian Eigenvalues:
     0.002539    0.006344    0.008641    0.012297    0.026670    0.029283
     0.039101    0.040396    0.041289    0.050321    0.054776    0.056486
     0.057804    0.059765    0.066314    0.081292    0.091806    0.105072
     0.108606    0.113718    0.117696    0.139935    0.146308    0.151297
     0.157334    0.159999    0.160000    0.160004    0.160029    0.220439
     0.264745    0.273802    0.302338    0.319584    0.335680    0.339013
     0.340709    0.343075    0.343182    0.344985    0.346844    0.348664
     0.349901    0.416685    0.538232
**WARNING** Hessian does not have the Desired Local Structure

 Transition State Search - Taking P-RFO Step
 Searching for Lamda that Maximizes Along the Lowest mode
 Value Taken    Lamda =   0.00315404
 Searching for Lamda that Minimizes Along All other modes
 Value Taken    Lamda =  -0.00079498
 Calculated Step too Large.  Step scaled by  0.132219
 Step Taken.  Stepsize is  0.300000

                             Maximum     Tolerance    Cnvgd?
         Gradient           0.003924      0.000300      NO
         Displacement       0.113687      0.001200      NO
         Energy change      0.000286      0.000001      NO


 New Cartesian Coordinates Obtained by Inverse Iteration

 Displacement from previous Coordinates is:  0.410307
 ----------------------------------------------------
       Standard Nuclear Orientation (Angstroms)
    I     Atom         X            Y            Z
 ----------------------------------------------------
    1      C      -0.853362    -0.200388     0.355623
    2      C       0.244670     0.088496    -0.673443
    3      C       1.563152     0.591385    -0.152118
    4      O       2.375939    -0.453295     0.376470
    5      C      -1.324617     1.250223     0.298250
    6      C      -1.901882    -1.170425    -0.167613
    7      H      -0.489086    -0.525634     1.340509
    8      H       0.292289    -0.567308    -1.547560
    9      H       2.158517     1.037397    -0.952013
   10      H       1.885524    -0.903360     1.077275
   11      H      -2.386047     1.448899     0.144026
   12      H      -0.580399     1.214342    -0.886262
   13      H      -0.797711     1.963549     0.929624
   14      H      -2.282999    -0.826558    -1.137842
   15      H      -2.750871    -1.244571     0.520226
   16      H      -1.481603    -2.172075    -0.306734
   17      H       1.394938     1.364582     0.614384
 ----------------------------------------------------
 Molecular Point Group                 C1    NOp =  1
 Largest Abelian Subgroup              C1    NOp =  1
 Nuclear Repulsion Energy =   248.7539659131 hartrees
 There are       25 alpha and       24 beta electrons
 Applying Cartesian multipole field
    Component          Value
    ---------          -----
     (2,0,0)        1.00000E-11
     (0,2,0)        2.00000E-11
     (0,0,2)       -3.00000E-11
 Nucleus-field energy     =     0.0000000058 hartrees
 Requested basis set is non-standard
 There are 138 shells and 314 basis functions
 A cutoff of  1.0D-11 yielded   9032 shell pairs
 There are     46448 function pairs (     55751 Cartesian)
 Smallest overlap matrix eigenvalue = 1.19E-05
 Guess MOs from SCF MO coefficient file
Reading MOs from coefficient file
Reading MOs from coefficient file
 An unrestricted hybrid HF-DFT SCF calculation will be
 performed using Pulay DIIS extrapolation
 Exchange:     0.5679 Hartree-Fock + 1.0000 M08SO
 SCF converges when DIIS error is below 1.0E-08
Geometry optimization detected.  Setting ReadMinima to 0
Setting SaveMinima to 0
 ---------------------------------------
  Cycle       Energy         DIIS Error
 ---------------------------------------
    1    -272.1352192650      5.26E-04
    2    -272.1352253800      6.36E-05
    3    -272.1353624714      2.52E-05
    4    -272.1353755915      1.62E-05
    5    -272.1353802535      3.95E-06
    6    -272.1353806967      1.45E-06
    7    -272.1353808204      7.21E-07
    8    -272.1353808513      2.28E-07
    9    -272.1353808577      1.06E-07
   10    -272.1353808590      5.44E-08
   11    -272.1353808591      2.26E-08
   12    -272.1353808589      8.14E-09 Convergence criterion met
 ---------------------------------------
 <S^2> = 0.7613
 SCF time:  CPU 1058.19 s  wall 1064.53 s
 SCF   energy in the final basis set = -272.1353808589
 Total energy in the final basis set = -272.1353808589
 Analysis of SCF Wavefunction
 
 --------------------------------------------------------------
                    Orbital Energies (a.u.)
 --------------------------------------------------------------
 
 Alpha MOs
 -- Occupied --
-19.566 -10.546 -10.515 -10.513 -10.511 -10.492  -1.136  -0.942
 -0.825  -0.782  -0.714  -0.652  -0.598  -0.572  -0.531  -0.519
 -0.509  -0.470  -0.464  -0.435  -0.417  -0.394  -0.384  -0.364
 -0.235
 -- Virtual --
 -0.027  -0.016  -0.012  -0.004   0.012   0.015   0.020   0.024
  0.026   0.046   0.052   0.062   0.068   0.073   0.080   0.094
  0.104   0.104   0.117   0.122   0.123   0.130   0.133   0.141
  0.143   0.148   0.156   0.160   0.165   0.169   0.180   0.203
  0.205   0.211   0.220   0.224   0.230   0.243   0.248   0.259
  0.266   0.277   0.294   0.308   0.320   0.327   0.338   0.341
  0.362   0.380   0.400   0.432   0.441   0.454   0.461   0.472
  0.499   0.514   0.524   0.533   0.542   0.561   0.566   0.571
  0.578   0.581   0.591   0.595   0.604   0.611   0.614   0.623
  0.640   0.641   0.657   0.681   0.695   0.710   0.717   0.725
  0.746   0.769   0.788   0.802   0.840   0.851   0.888   0.901
  0.934   0.945   0.953   0.969   0.994   1.018   1.028   1.044
  1.050   1.062   1.090   1.108   1.119   1.123   1.144   1.178
  1.186   1.191   1.202   1.227   1.234   1.253   1.267   1.274
  1.296   1.299   1.316   1.320   1.348   1.360   1.365   1.375
  1.391   1.402   1.411   1.429   1.435   1.453   1.454   1.473
  1.483   1.501   1.539   1.540   1.547   1.554   1.572   1.575
  1.597   1.617   1.624   1.652   1.703   1.709   1.736   1.789
  1.936   2.072   2.114   2.273   2.307   2.414   2.449   2.486
  2.495   2.503   2.549   2.589   2.627   2.666   2.692   2.709
  2.722   2.748   2.765   2.798   2.825   2.842   2.873   2.888
  2.922   2.926   2.941   2.983   2.992   3.013   3.025   3.077
  3.078   3.101   3.133   3.148   3.153   3.158   3.178   3.198
  3.227   3.261   3.276   3.295   3.318   3.348   3.361   3.365
  3.386   3.417   3.433   3.444   3.475   3.492   3.516   3.527
  3.552   3.561   3.573   3.610   3.615   3.669   3.682   3.700
  3.719   3.735   3.739   3.750   3.774   3.782   3.819   3.839
  3.873   3.898   3.918   3.948   3.958   4.005   4.021   4.024
  4.036   4.058   4.087   4.095   4.120   4.149   4.159   4.175
  4.183   4.210   4.217   4.252   4.270   4.279   4.302   4.339
  4.347   4.370   4.397   4.414   4.450   4.460   4.472   4.505
  4.528   4.556   4.597   4.623   4.717   4.751   4.827   4.831
  4.855   4.938   5.087   5.145   5.174   5.189   5.280   5.348
  5.401   5.431   5.473   5.493   5.508   5.518   5.545   5.577
  5.621   5.648   5.753   5.879   6.448   6.953   7.112   7.180
  7.190   7.469   7.589  24.022  24.064  24.149  24.240  24.292
 49.794
 
 Beta MOs
 -- Occupied --
-19.564 -10.546 -10.514 -10.503 -10.500 -10.492  -1.133  -0.933
 -0.822  -0.774  -0.706  -0.647  -0.595  -0.555  -0.526  -0.512
 -0.505  -0.468  -0.458  -0.430  -0.416  -0.388  -0.375  -0.360
 -- Virtual --
 -0.040  -0.031  -0.018  -0.014  -0.004   0.010   0.012   0.015
  0.021   0.023   0.044   0.048   0.058   0.065   0.072   0.076
  0.089   0.101   0.103   0.115   0.119   0.122   0.127   0.131
  0.137   0.141   0.145   0.154   0.159   0.164   0.173   0.181
  0.203   0.207   0.214   0.220   0.224   0.231   0.244   0.247
  0.261   0.270   0.280   0.298   0.308   0.320   0.328   0.341
  0.345   0.365   0.383   0.402   0.432   0.442   0.455   0.462
  0.474   0.503   0.522   0.533   0.536   0.551   0.562   0.569
  0.576   0.585   0.587   0.597   0.599   0.610   0.617   0.623
  0.638   0.644   0.650   0.668   0.684   0.698   0.715   0.723
  0.725   0.754   0.773   0.799   0.806   0.843   0.853   0.889
  0.903   0.939   0.948   0.958   0.973   1.000   1.019   1.032
  1.051   1.053   1.067   1.093   1.111   1.122   1.130   1.150
  1.181   1.192   1.195   1.208   1.231   1.241   1.263   1.275
  1.281   1.303   1.306   1.326   1.331   1.353   1.367   1.370
  1.387   1.396   1.411   1.414   1.435   1.439   1.459   1.464
  1.480   1.486   1.507   1.544   1.552   1.556   1.563   1.584
  1.589   1.610   1.624   1.635   1.663   1.710   1.718   1.743
  1.799   1.939   2.081   2.117   2.274   2.310   2.422   2.459
  2.500   2.517   2.518   2.563   2.601   2.642   2.713   2.717
  2.731   2.752   2.779   2.790   2.831   2.861   2.887   2.903
  2.923   2.938   2.951   2.978   3.003   3.025   3.033   3.056
  3.099   3.106   3.141   3.154   3.166   3.172   3.198   3.206
  3.214   3.249   3.282   3.298   3.310   3.341   3.368   3.377
  3.394   3.399   3.446   3.452   3.472   3.509   3.514   3.540
  3.548   3.575   3.578   3.601   3.634   3.642   3.684   3.704
  3.717   3.736   3.739   3.759   3.775   3.787   3.807   3.833
  3.858   3.895   3.925   3.934   3.960   3.976   4.004   4.019
  4.038   4.052   4.075   4.099   4.110   4.129   4.157   4.163
  4.186   4.190   4.213   4.238   4.257   4.287   4.294   4.338
  4.353   4.378   4.389   4.431   4.450   4.461   4.493   4.505
  4.514   4.544   4.598   4.618   4.631   4.777   4.796   4.841
  4.881   4.918   4.992   5.126   5.174   5.194   5.203   5.311
  5.356   5.445   5.478   5.508   5.519   5.537   5.570   5.584
  5.601   5.632   5.652   5.759   5.880   6.446   6.954   7.114
  7.181   7.191   7.468   7.589  24.030  24.074  24.151  24.246
 24.301  49.794
 --------------------------------------------------------------
 
          Ground-State Mulliken Net Atomic Charges

     Atom                 Charge (a.u.)    Spin (a.u.)
  --------------------------------------------------------
      1 C                     0.564518      -0.106956
      2 C                    -0.444092       0.599486
      3 C                    -0.644708       0.004087
      4 O                    -0.287818       0.011317
      5 C                    -0.801295       0.598515
      6 C                    -0.838811       0.013747
      7 H                     0.245620       0.006059
      8 H                     0.287075      -0.008667
      9 H                     0.200934       0.003876
     10 H                     0.264112       0.003213
     11 H                     0.235895      -0.000216
     12 H                     0.180191      -0.096068
     13 H                     0.184412      -0.020966
     14 H                     0.207593       0.000502
     15 H                     0.214220      -0.001002
     16 H                     0.202080      -0.001554
     17 H                     0.230075      -0.005373
  --------------------------------------------------------
  Sum of atomic charges =     0.000000
  Sum of spin   charges =     1.000000

 -----------------------------------------------------------------
                    Cartesian Multipole Moments
 -----------------------------------------------------------------
    Charge (ESU x 10^10)
                 0.0000
    Dipole Moment (Debye)
         X      -1.7652      Y       0.1297      Z       0.5909
       Tot       1.8660
    Quadrupole Moments (Debye-Ang)
        XX     -47.1243     XY       2.1398     YY     -39.9699
        XZ       0.1235     YZ      -0.7077     ZZ     -38.9606
    Octapole Moments (Debye-Ang^2)
       XXX     -16.2147    XXY       4.2817    XYY       5.2658
[...]
 H          0.133  0.483 -0.002   -0.452  0.070  0.326   -0.076 -0.450 -0.011
 H          0.242  0.006  0.126    0.248  0.154 -0.181    0.591  0.015 -0.001
 H         -0.347  0.269 -0.152    0.061 -0.183 -0.013   -0.180  0.156 -0.059
 H         -0.223  0.200  0.005    0.275 -0.305  0.068   -0.173  0.180 -0.025
 H          0.055 -0.153 -0.053   -0.020  0.036  0.067   -0.096  0.190  0.096
 H          0.080  0.134  0.050    0.025 -0.039  0.028    0.081  0.030  0.104
 H          0.131  0.042 -0.134   -0.043 -0.024  0.043   -0.064 -0.024  0.061
 H          0.011 -0.044 -0.045   -0.212 -0.109  0.017    0.134  0.014 -0.014
 H         -0.175 -0.185 -0.122    0.156  0.140  0.129   -0.018 -0.119 -0.004
 H         -0.016 -0.014 -0.091   -0.118 -0.092  0.091    0.206  0.160  0.057
 H         -0.215 -0.155  0.041   -0.183  0.229 -0.196   -0.102 -0.237  0.072
 TransDip   0.000  0.000  0.000    0.000  0.000  0.000    0.000  0.000  0.000

 Mode:                22                     23                     24
 Frequency:      1153.77                1210.72                1250.38
 Force Cnst:      1.2055                 1.3513                 1.3837
 Red. Mass:       1.5371                 1.5646                 1.5022
 IR Active:          YES                    YES                    YES
 IR Intens:        0.000                  0.000                  0.000
 Raman Active:       YES                    YES                    YES
               X      Y      Z        X      Y      Z        X      Y      Z
 C          0.147 -0.017  0.030    0.082  0.023  0.111   -0.123  0.095  0.097
 C          0.018  0.001  0.037   -0.062 -0.038 -0.082    0.000 -0.019  0.026
 C         -0.017  0.055 -0.018    0.019 -0.035  0.079    0.008  0.001 -0.051
 O         -0.010 -0.023  0.007    0.021  0.015 -0.010   -0.015  0.008  0.008
 C         -0.071  0.010 -0.053   -0.026 -0.012 -0.019    0.007 -0.045 -0.032
 C         -0.096  0.037 -0.023   -0.035  0.013 -0.088    0.032 -0.023 -0.051
 H          0.327 -0.139 -0.074    0.131  0.260  0.156    0.714 -0.248 -0.337
 H         -0.333 -0.128  0.146    0.149  0.093 -0.181    0.300  0.055 -0.039
 H          0.151 -0.048  0.066   -0.311  0.024 -0.157    0.124  0.056  0.067
 H          0.215 -0.245  0.044   -0.314  0.348 -0.062    0.094 -0.104  0.019
 H         -0.036  0.367 -0.017    0.003  0.179 -0.022    0.002  0.035  0.022
 H          0.085  0.017  0.054   -0.026 -0.021  0.001    0.105  0.056  0.091
 H          0.065 -0.233  0.125    0.039 -0.142  0.079    0.036 -0.079 -0.021
 H         -0.070 -0.278 -0.113   -0.243 -0.268 -0.068   -0.162  0.019  0.045
 H         -0.062 -0.276 -0.018    0.119 -0.036  0.097    0.092  0.162  0.051
 H          0.210  0.160  0.104   -0.002  0.003  0.149   -0.114 -0.095  0.076
 H         -0.164  0.137 -0.108    0.385 -0.102  0.169   -0.025 -0.077  0.024
 TransDip   0.000  0.000  0.000    0.000  0.000  0.000    0.000  0.000  0.000

 Mode:                25                     26                     27
 Frequency:      1272.20                1304.89                1338.34
 Force Cnst:      1.1848                 1.2460                 1.3265
 Red. Mass:       1.2425                 1.2420                 1.2569
 IR Active:          YES                    YES                    YES
 IR Intens:        0.000                  0.000                  0.000
 Raman Active:       YES                    YES                    YES
               X      Y      Z        X      Y      Z        X      Y      Z
 C         -0.018  0.048  0.020    0.002 -0.084 -0.016    0.059  0.078 -0.005
 C          0.051  0.011 -0.075   -0.099 -0.025  0.001   -0.034 -0.034 -0.021
 C         -0.014  0.009  0.074    0.024  0.028 -0.027   -0.019  0.037 -0.062
 O          0.024 -0.021 -0.016   -0.006 -0.001  0.003   -0.029  0.019  0.033
 C         -0.017 -0.025 -0.023   -0.010  0.006  0.001   -0.019 -0.002 -0.009
 C          0.017 -0.019  0.017   -0.009  0.024 -0.025    0.006 -0.016  0.030
 H         -0.062 -0.372 -0.065    0.024  0.422  0.100   -0.301 -0.321  0.040
 H         -0.314 -0.284  0.122    0.234 -0.103  0.019    0.023 -0.018 -0.034
 H         -0.234 -0.057 -0.133    0.224  0.012  0.119   -0.006  0.151 -0.002
 H         -0.204  0.216 -0.042    0.079 -0.085  0.016    0.242 -0.272  0.058
 H         -0.069 -0.011  0.123   -0.082 -0.151  0.136   -0.014 -0.090 -0.043
 H          0.388  0.283  0.359    0.454  0.301  0.440    0.141  0.089  0.105
 H          0.046  0.071 -0.143    0.073  0.176 -0.196    0.144 -0.101  0.006
 H          0.005  0.068  0.042    0.014 -0.033 -0.042    0.003 -0.024  0.022
 H         -0.045  0.012 -0.047    0.090  0.007  0.085   -0.103 -0.067 -0.099
 H         -0.077 -0.060 -0.032    0.077  0.058  0.068   -0.103 -0.060 -0.102
 H         -0.047  0.184 -0.095    0.006  0.015 -0.009    0.525 -0.336  0.323
 TransDip   0.000  0.000  0.000    0.000  0.000  0.000    0.000  0.000  0.000

 Mode:                28                     29                     30
 Frequency:      1359.42                1390.72                1401.23
 Force Cnst:      1.4230                 1.4866                 1.5741
 Red. Mass:       1.3069                 1.3046                 1.3607
 IR Active:          YES                    YES                    YES
 IR Intens:        0.000                  0.000                  0.000
 Raman Active:       YES                    YES                    YES
               X      Y      Z        X      Y      Z        X      Y      Z
 C          0.068  0.082 -0.002    0.032  0.041 -0.002   -0.036 -0.041 -0.014
 C         -0.097 -0.020  0.038    0.003 -0.008  0.006    0.060  0.004  0.009
 C         -0.004 -0.015  0.020   -0.066  0.009 -0.008   -0.124  0.015 -0.019
 O          0.033 -0.005 -0.029    0.019  0.008 -0.009    0.032  0.011 -0.015
 C         -0.025  0.014 -0.009    0.011 -0.033 -0.007    0.015 -0.013  0.004
 C          0.001 -0.009  0.021   -0.087 -0.097 -0.028    0.054  0.061  0.020
 H         -0.184 -0.269  0.016   -0.058 -0.094  0.004    0.106  0.108 -0.038
 H          0.340  0.144 -0.087   -0.022  0.011 -0.001   -0.157 -0.048  0.066
 H          0.379 -0.258  0.210    0.265 -0.213  0.149    0.430 -0.334  0.254
 H         -0.216  0.247 -0.063   -0.112  0.127 -0.035   -0.186  0.221 -0.051
 H          0.010 -0.190 -0.151    0.000  0.201  0.092   -0.003  0.129  0.096
 H          0.009  0.033  0.010    0.021  0.005 -0.023    0.012 -0.043 -0.007
 H          0.268 -0.213  0.064   -0.163  0.071 -0.022   -0.172  0.127 -0.040
 H         -0.004 -0.076  0.000    0.264  0.403 -0.029   -0.172 -0.225  0.031
 H         -0.081 -0.075 -0.078    0.137  0.341  0.262   -0.099 -0.205 -0.179
 H         -0.109 -0.055 -0.105    0.430  0.153  0.099   -0.236 -0.078 -0.045
 H         -0.257  0.175 -0.169    0.199 -0.085  0.098    0.349 -0.130  0.151
 TransDip   0.000  0.000  0.000    0.000  0.000  0.000    0.000  0.000  0.000

 Mode:                31                     32                     33
 Frequency:      1411.80                1474.66                1476.99
 Force Cnst:      1.5530                 1.3381                 1.3494
 Red. Mass:       1.3225                 1.0444                 1.0499
 IR Active:          YES                    YES                    YES
 IR Intens:        0.000                  0.000                  0.000
 Raman Active:       YES                    YES                    YES
               X      Y      Z        X      Y      Z        X      Y      Z
 C          0.046  0.054 -0.020    0.006  0.014 -0.021   -0.023  0.018  0.009
 C         -0.080 -0.014  0.022   -0.006 -0.003  0.007    0.008 -0.001 -0.004
 C          0.054 -0.002  0.001    0.006  0.009 -0.001   -0.002  0.002  0.000
 O         -0.008 -0.002  0.002   -0.001  0.001  0.000    0.000  0.000  0.000
 C          0.045 -0.101 -0.011    0.002 -0.005  0.003    0.006 -0.009 -0.001
 C          0.018  0.006  0.020    0.000  0.019 -0.045   -0.038  0.032  0.015
 H         -0.160 -0.102  0.024   -0.056 -0.043 -0.013    0.023 -0.030 -0.023
 H          0.194  0.090 -0.059    0.002  0.011 -0.002   -0.015  0.000 -0.004
 H         -0.037  0.059 -0.042    0.006 -0.066 -0.037   -0.005 -0.008 -0.008
 H          0.044 -0.055  0.008    0.005 -0.004  0.001    0.000  0.003  0.002
 H          0.017  0.563  0.288    0.007  0.009 -0.004    0.005  0.022  0.017
 H          0.023  0.041 -0.034   -0.008  0.019 -0.035   -0.003  0.002 -0.009
 H         -0.506  0.306 -0.134   -0.009  0.008 -0.006   -0.028  0.014 -0.007
 H         -0.072 -0.098  0.028    0.120  0.408  0.029    0.551 -0.300 -0.313
 H         -0.100 -0.068 -0.124    0.169 -0.549  0.117    0.335 -0.119  0.418
 H         -0.114 -0.051 -0.090   -0.268 -0.168  0.593   -0.288 -0.079 -0.332
 H         -0.173  0.035 -0.052   -0.051 -0.047  0.044    0.008 -0.010  0.012
 TransDip   0.000  0.000  0.000    0.000  0.000  0.000    0.000  0.000  0.000

 Mode:                34                     35                     36
 Frequency:      1480.55                1767.49                2943.95
 Force Cnst:      1.4086                 1.9343                 5.4680
 Red. Mass:       1.0907                 1.0509                 1.0708
 IR Active:          YES                    YES                    YES
 IR Intens:        0.000                  0.000                  0.000
 Raman Active:       YES                    YES                    YES
               X      Y      Z        X      Y      Z        X      Y      Z
 C          0.005  0.007 -0.004   -0.009 -0.034  0.025    0.002 -0.001  0.004
 C          0.004 -0.002  0.004    0.011 -0.029  0.011    0.001  0.001  0.002
 C         -0.044 -0.073 -0.002   -0.001  0.001  0.000   -0.006 -0.058 -0.048
 O          0.003 -0.008  0.002   -0.001  0.001 -0.001    0.001 -0.001  0.001
 C          0.002 -0.004  0.000   -0.017 -0.009  0.024    0.000  0.001  0.001
 C         -0.002  0.001 -0.004    0.003  0.004  0.000   -0.001  0.000  0.000
 H         -0.016 -0.020 -0.005    0.000 -0.032  0.029   -0.023  0.011 -0.050
 H          0.008  0.009  0.000   -0.021  0.036 -0.030   -0.001 -0.019 -0.030
 H          0.040  0.586  0.379    0.007  0.003  0.008    0.108  0.059 -0.154
 H         -0.014  0.005 -0.002   -0.002  0.001 -0.002    0.000 -0.003  0.004
 H          0.002  0.027  0.010    0.008  0.010 -0.051    0.000  0.001  0.001
 H         -0.015 -0.014 -0.013    0.129  0.739 -0.651   -0.002 -0.002 -0.003
 H         -0.027  0.010  0.000    0.029  0.005 -0.005   -0.004 -0.005 -0.004
 H          0.025  0.049  0.000   -0.010 -0.016  0.003    0.004 -0.002  0.009
 H          0.021 -0.064  0.018    0.001  0.016 -0.002    0.000  0.000 -0.001
 H         -0.032 -0.021  0.062    0.011  0.010 -0.008    0.002 -0.002  0.000
 H          0.395  0.412 -0.402    0.011  0.004 -0.001   -0.055  0.662  0.714
 TransDip   0.000  0.000  0.000    0.000  0.000  0.000    0.000  0.000  0.000

 Mode:                37                     38                     39
 Frequency:      2970.92                2976.24                3043.71
 Force Cnst:      5.6281                 5.4223                 6.0030
 Red. Mass:       1.0823                 1.0390                 1.0998
 IR Active:          YES                    YES                    YES
 IR Intens:        0.000                  0.000                  0.000
 Raman Active:       YES                    YES                    YES
               X      Y      Z        X      Y      Z        X      Y      Z
 C         -0.030  0.018 -0.072   -0.007  0.006 -0.020   -0.005  0.003 -0.011
 C         -0.001  0.001  0.001    0.000  0.001  0.001    0.000  0.002  0.003
 C         -0.001 -0.003 -0.003    0.000 -0.001  0.000    0.001  0.001 -0.001
 O          0.000  0.000  0.000    0.000  0.000  0.000    0.000  0.000  0.000
 C          0.001  0.001  0.002    0.001  0.000  0.000    0.001  0.000  0.001
 C          0.011  0.001  0.017   -0.032 -0.027 -0.024   -0.015  0.057 -0.069
 H          0.352 -0.214  0.853    0.095 -0.060  0.234    0.050 -0.027  0.117
 H         -0.002 -0.005 -0.010   -0.003 -0.007 -0.009   -0.004 -0.021 -0.035
 H          0.013  0.007 -0.014    0.003  0.002 -0.004   -0.009 -0.006  0.012
 H          0.001 -0.006  0.005    0.001 -0.002  0.001    0.000 -0.001  0.001
 H          0.006  0.000  0.002   -0.005 -0.002 -0.002   -0.010  0.000 -0.005
 H         -0.001 -0.004  0.003   -0.001 -0.003  0.002   -0.001 -0.002  0.001
 H         -0.015 -0.023 -0.027   -0.002 -0.006 -0.004   -0.002 -0.005 -0.007
 H         -0.101  0.071 -0.252    0.236 -0.163  0.583    0.258 -0.161  0.623
 H         -0.054 -0.008  0.050    0.368  0.024 -0.325   -0.327 -0.013  0.261
 H          0.032 -0.070 -0.002   -0.232  0.458  0.032    0.247 -0.502 -0.057
 H         -0.001  0.037  0.038    0.001  0.006  0.006    0.001  0.001  0.000
 TransDip   0.000  0.000  0.000    0.000  0.000  0.000    0.000  0.000  0.000

 Mode:                40                     41                     42
 Frequency:      3049.54                3055.00                3059.09
 Force Cnst:      5.9787                 5.7944                 6.0788
 Red. Mass:       1.0912                 1.0537                 1.1025
 IR Active:          YES                    YES                    YES
 IR Intens:        0.000                  0.000                  0.000
 Raman Active:       YES                    YES                    YES
               X      Y      Z        X      Y      Z        X      Y      Z
 C          0.000  0.000  0.000    0.002 -0.003  0.002    0.000  0.000 -0.002
 C          0.001  0.009  0.016    0.001  0.001  0.003    0.000  0.001  0.003
 C          0.047  0.020 -0.068   -0.004 -0.001  0.007    0.000  0.000  0.000
 O         -0.001  0.000  0.001    0.000  0.000  0.000    0.000  0.000  0.000
 C         -0.003  0.004  0.001   -0.045  0.044  0.010    0.004 -0.004 -0.001
 C          0.001 -0.002  0.001    0.006 -0.004 -0.005    0.068 -0.042 -0.048
 H          0.000  0.000  0.001   -0.010  0.005 -0.020    0.004 -0.002  0.011
 H         -0.013 -0.115 -0.195   -0.004 -0.020 -0.033   -0.004 -0.018 -0.028
 H         -0.555 -0.344  0.694    0.049  0.030 -0.061    0.004  0.002 -0.005
 H          0.012  0.000 -0.009   -0.001  0.000  0.001    0.000  0.000  0.000
 H          0.056 -0.007  0.022    0.725 -0.092  0.283   -0.069  0.011 -0.027
 H          0.000  0.000  0.002   -0.003  0.008 -0.001    0.000 -0.001  0.000
 H         -0.017 -0.033 -0.034   -0.205 -0.393 -0.409    0.020  0.041  0.042
 H         -0.006  0.004 -0.015    0.007 -0.003  0.013    0.037 -0.024  0.042
 H          0.005  0.000 -0.004   -0.052 -0.003  0.045   -0.571 -0.054  0.491
 H         -0.008  0.015  0.002   -0.023  0.053  0.004   -0.272  0.576  0.036
 H          0.001  0.115  0.113    0.000 -0.016 -0.016    0.000  0.001  0.001
 TransDip   0.000  0.000  0.000    0.000  0.000  0.000    0.000  0.000  0.000

 Mode:                43                     44                     45
 Frequency:      3075.26                3163.63                3884.08
 Force Cnst:      6.0692                 6.5842                 9.4777
 Red. Mass:       1.0892                 1.1166                 1.0663
 IR Active:          YES                    YES                    YES
 IR Intens:        0.000                  0.000                  0.000
 Raman Active:       YES                    YES                    YES
               X      Y      Z        X      Y      Z        X      Y      Z
 C         -0.002 -0.001  0.000   -0.002  0.001 -0.002    0.000  0.000  0.000
 C         -0.007 -0.041 -0.072    0.000  0.000  0.000    0.000  0.000  0.000
 C          0.013  0.002 -0.016    0.000 -0.001 -0.001    0.002  0.000 -0.001
 O          0.000  0.000  0.000    0.000  0.000  0.000    0.034  0.028 -0.044
 C         -0.003  0.003  0.001   -0.068 -0.038 -0.063    0.000  0.000  0.000
 C          0.002  0.000 -0.005    0.000  0.001  0.000    0.000  0.000  0.000
 H          0.004 -0.005  0.017    0.013 -0.009  0.026   -0.001  0.001 -0.005
 H          0.063  0.489  0.833    0.000  0.000 -0.001    0.000  0.001  0.000
 H         -0.127 -0.076  0.150   -0.001  0.000  0.001   -0.007 -0.004  0.010
 H          0.003 -0.001 -0.002    0.000  0.000  0.000   -0.550 -0.444  0.705
 H          0.041 -0.006  0.015    0.560 -0.082  0.200    0.000  0.000  0.000
 H          0.004  0.002 -0.004    0.000  0.000 -0.001    0.001  0.000  0.000
 H         -0.012 -0.023 -0.022    0.246  0.523  0.543    0.000  0.000  0.000
 H          0.015 -0.007  0.029    0.003  0.000  0.008    0.000  0.000  0.000
 H         -0.029 -0.001  0.027   -0.001  0.001  0.000    0.000  0.000  0.000
 H         -0.002  0.010 -0.001    0.003 -0.006  0.000    0.000  0.000  0.000
 H         -0.001  0.050  0.053    0.001  0.005  0.005    0.001 -0.003  0.000
 TransDip   0.000  0.000  0.000    0.000  0.000  0.000    0.000  0.000  0.000

 STANDARD THERMODYNAMIC QUANTITIES AT   298.15 K  AND     1.00 ATM

   This Molecule has  1 Imaginary Frequencies
   Zero point vibrational energy:       90.507 kcal/mol

   Atom    1 Element C  Has Mass   12.00000
   Atom    2 Element C  Has Mass   12.00000
   Atom    3 Element C  Has Mass   12.00000
   Atom    4 Element O  Has Mass   15.99491
   Atom    5 Element C  Has Mass   12.00000
   Atom    6 Element C  Has Mass   12.00000
   Atom    7 Element H  Has Mass    1.00783
   Atom    8 Element H  Has Mass    1.00783
   Atom    9 Element H  Has Mass    1.00783
   Atom   10 Element H  Has Mass    1.00783
   Atom   11 Element H  Has Mass    1.00783
   Atom   12 Element H  Has Mass    1.00783
   Atom   13 Element H  Has Mass    1.00783
   Atom   14 Element H  Has Mass    1.00783
   Atom   15 Element H  Has Mass    1.00783
   Atom   16 Element H  Has Mass    1.00783
   Atom   17 Element H  Has Mass    1.00783
   Molecular Mass:    87.081040 amu
   Principal axes and moments of inertia in atomic units:
                             1           2           3
    Eigenvalues --      310.93132   861.84644  1027.92959
          X               0.99963     0.02720     0.00107
          Y              -0.02721     0.99960     0.00826
          Z              -0.00085    -0.00828     0.99997
   Rotational Symmetry Number is   1
   The Molecule is an Asymmetric Top
   Translational Enthalpy:        0.889 kcal/mol
   Rotational Enthalpy:           0.889 kcal/mol
   Vibrational Enthalpy:         93.673 kcal/mol
   gas constant (RT):             0.592 kcal/mol
   Translational Entropy:        39.306  cal/mol.K
   Rotational Entropy:           27.112  cal/mol.K
   Vibrational Entropy:          18.949  cal/mol.K

   Total Enthalpy:               96.043 kcal/mol
   Total Entropy:                85.367  cal/mol.K
Archival summary:
1\1\node79\FREQ\ProcedureUnspecified\BasisUnspecified\1511(2)\edames\ThuApr1018:47:212014ThuApr1018:47:212014\0\\#,FREQ,ProcedureUnspecified,BasisUnspecified,\\0,2\C\H,1,1.10097\C,1,1.52532,2,110.348\H,3,1.09713,1,111.337,2,-60.2348,0\H,3,1.09722,1,111.294,2,61.0095,0\H,3,1.09953,1,109.851,2,-179.662,0\C,1,1.53018,2,113.016,3,-128.421,0\H,7,1.09031,1,118.075,2,-19.2932,0\H,7,1.09213,1,117.785,2,127.668,0\H,7,1.40923,1,81.6462,2,-123.539,0\C,10,1.39919,7,103.523,1,8.20747,0\H,11,1.09459,10,110.916,7,-123.5,0\C,11,1.50482,10,107.553,7,107.594,0\H,13,1.09537,11,111.122,10,78.2278,0\H,13,1.10504,11,109.704,10,-40.8012,0\O,13,1.42622,11,112.345,10,-163.56,0\H,16,0.963601,13,109.082,11,55.897,0\\\@

 Total job time:  85815.50s(wall), 85318.95s(cpu) 
 Thu Apr 10 18:47:21 2014

        *************************************************************
        *                                                           *
        *  Thank you very much for using Q-Chem.  Have a nice day.  *
        *                                                           *
        *************************************************************


0 sent ACK to 0 
now end server 0 ... 
cleanup process ... done
remove work dirs /tmp/qchem21269.0 -- /tmp/qchem21269.3
rm -rf /tmp/qchem21269.0
rm -rf /tmp/qchem21269.1
rm -rf /tmp/qchem21269.2
rm -rf /tmp/qchem21269.3
rm -rf /tmp/qchem21269
