
Running Job 1 of 2 ts45.in
qchem ts45.in_16440.0 /tmp/qchem16440/ 4
/opt/qchem/bin/mpi/mpirun_qchem -machinefile /tmp/296598.1.normal1/hostfile -np 4 /opt/qchem/exe/qcprog.exe ts45.in_16440.0 /tmp/qchem16440/

Process 0 of 4 is on node24.cluster - thread support 0
Process 1 of 4 is on node24.cluster - thread support 0
Process 3 of 4 is on node24.cluster - thread support 0
initial socket setup ...start
initial socket setup ...done 
now start server 0 ... 
                  Welcome to Q-Chem
     A Quantum Leap Into The Future Of Chemistry

 Y. Shao, L. Fusti-Molnar, Y. Jung, J. Kussmann, C. Ochsenfeld, S. T. Brown, 
 A. T. B. Gilbert, L. V. Slipchenko, S. V. Levchenko, D. P. O'Neill, 
 R. A. DiStasio Jr., R. C. Lochan, T. Wang, G. J. O. Beran, N. A. Besley, 
 J. M. Herbert, C. Y. Lin, T. Van Voorhis, S. H. Chien, A. Sodt, R. P. Steele, 
 V. A. Rassolov, P. E. Maslen, P. P. Korambath, R. D. Adamson, B. Austin, 
 J. Baker, E. F. C. Byrd, H. Dachsel, R. J. Doerksen, A. Dreuw, B. D. Dunietz, 
 A. D. Dutoi, T. R. Furlani, S. R. Gwaltney, A. Heyden, S. Hirata, C.-P. Hsu, 
 G. Kedziora, R. Z. Khaliullin, P. Klunzinger, A. M. Lee, M. S. Lee, W. Liang, 
 I. Lotan, N. Nair, B. Peters, E. I. Proynov, P. A. Pieniazek, Y. M. Rhee, 
 J. Ritchie, E. Rosta, C. D. Sherrill, A. C. Simmonett, J. E. Subotnik, 
 H. L. Woodcock III, W. Zhang, A. T. Bell, A. K. Chakraborty, D. M. Chipman, 
 F. J. Keil, A. Warshel, W. J. Hehre, H. F. Schaefer III, J. Kong, 
 A. I. Krylov, P. M. W. Gill, M. Head-Gordon

 Additional authors for Version 3.1: 
 Z. Gan, Y. Zhao, N. E. SchultzD. Truhlar, E. Epifanovsky, M. Oana

 Additional authors for Version 3.2: 
 R. Baer, B. R. Brooks, D. Casanova, J.-D. Chai, C.-L. Cheng, C. Cramer, 
 D. Crittenden, A. Ghysels, G. Hawkins, E. G. Hohenstein, C. Kelley, 
 W. Kurlancheek, D. Liotard, E. Livshits, P. Manohar, A. Marenich, 
 D. Neuhauser, R. Olson, M. A. Rohrdanz, K. S. Thanthiriwatte, A. J. W. Thom, 
 V. Vanovschi, C. F. Williams, Q. Wu, Z.-Q. You

 Additional authors for Version 4.0: 
 A. Aspuru-Guzik, Y. Bernard, C. Chang, J. Deng, A. Dreuw, M. Diedenhofen, 
 R. G. Edgar, D. Ghosh, W. A. Goddard III, M. Goldey, L. D. Jacobson, 
 M. Gordon, B. Kaduk, I. Kaliman, K. Khistyaev, R. King, A. Klamt, 
 D. Kosenkov, T. Kus, D. Lambrecht, A. Landau, A. W. Lange, K. Lawler, F. Liu, 
 J. Liu, R. Olivares-Amaya, S. P. Mao, J. Parkhill, N. Russ, M. Schmidt, 
 N. Shenvi, D. Small, Y. C. Su, E. Sundstrom, L. Vogt, O. Vydrov, M. Watson, 
 M. Wormit, X. Xu, S. Yeganeh, I. Y. Zhang, D. Zuev

 Additional authors for Version 4.1: 
 X. Feng, M. W. D. Hanson-Heine, P. Horn, H. Ji, A. Laurent, R. Peverati, 
 N. Mardirossian, N. Sergueev, S. Sharada, P. Zimmerman


 Q-Chem, Version 4.1, Q-Chem, Inc., Pittsburgh, PA (2013).

 Intel X86 Linux Version 4.1.0.1 

 Q-chem begins on Sun Apr 20 10:49:56 2014  

Host: 
0

     Scratch files written to /tmp/qchem16440.0//
 Oct1213 14483_epif 4150   
 Parallel job on  4  processors
Processing $rem in /opt/qchem/config/preferences.
 MEM_TOTAL  2000 
Warning: disabling incdft.
 Q-Chem warning in module /home/scratch/svnadmin/14483_epif/qchem/forms1/BasisType.C, line 1125:

 Setting pure/cartesian flag to 2111 for general basis


Finally everything over in PARseQInput

--------------------------------------------------------------
User input:
--------------------------------------------------------------
$rem
XC_GRID 000075000434
JOBTYPE ts
EXCHANGE M08SO
BASIS gen
GUI=2
UNRESTRICTED TRUE
CORRELATION NONE
$end

$comment
c5h11o-2
$end

$molecule
0 2
C
H  1 1.292363
C  2 1.298891 1 70.001496
H  3 1.078832 2 111.761626 1 -111.301094 0
H  3 1.079122 2 111.810128 1 111.540314 0
C  1 1.498975 2 115.440737 3 106.459087 0
H  6 1.088462 1 112.738275 2 92.705299 0
H  6 1.089531 1 110.768455 2 -28.238662 0
H  6 1.097687 1 110.141937 2 -146.687444 0
C  1 1.499422 2 115.234386 3 -106.225788 0
H  10 1.091822 1 109.864172 2 26.040787 0
H  10 1.102499 1 108.711823 2 141.811484 0
C  10 1.522668 1 114.723140 2 -96.077989 0
H  13 1.090477 10 109.770038 1 57.836535 0
H  13 1.094549 10 110.630332 1 -60.807395 0
O  13 1.414286 10 112.101628 1 175.368725 0
H  16 0.959728 13 108.972636 10 62.523467 0
$end

$basis
H  0
S  3 1.00
3.386500000000E+01 2.549380000000E-02
5.094790000000E+00 1.903730000000E-01
1.158790000000E+00 8.521610000000E-01
S  1 1.00
3.258400000000E-01 1.000000000000E+00
S  1 1.00
1.027410000000E-01 1.000000000000E+00
S  1 1.00
3.600000000000E-02 1.000000000000E+00
P  1 1.00
1.500000000000E+00 1.000000000000E+00
P  1 1.00
3.750000000000E-01 1.000000000000E+00
****
C 0
S  6 1.00
4.563240000000E+03 1.966650000000E-03
6.820240000000E+02 1.523060000000E-02
1.549730000000E+02 7.612690000000E-02
4.445530000000E+01 2.608010000000E-01
1.302900000000E+01 6.164620000000E-01
1.827730000000E+00 2.210060000000E-01
S  3 1.00
2.096420000000E+01 1.146600000000E-01
4.803310000000E+00 9.199990000000E-01
1.459330000000E+00 -3.030680000000E-03
S  1 1.00
4.834560000000E-01 1.000000000000E+00
S  1 1.00
1.455850000000E-01 1.000000000000E+00
S  1 1.00
4.380000000000E-02 1.000000000000E+00
P  3 1.00
2.096420000000E+01 4.024870000000E-02
4.803310000000E+00 2.375940000000E-01
1.459330000000E+00 8.158540000000E-01
P  1 1.00
4.834560000000E-01 1.000000000000E+00
P  1 1.00
1.455850000000E-01 1.000000000000E+00
P  1 1.00
4.380000000000E-02 1.000000000000E+00
D  1 1.00
1.252000000000E+00 1.000000000000E+00
D  1 1.00
3.130000000000E-01 1.000000000000E+00
F  1 1.00
8.000000000000E-01 1.000000000000E+00
****
O  0
S  6 1.00
8.588500000000E+03 1.895150000000E-03
1.297230000000E+03 1.438590000000E-02
2.992960000000E+02 7.073200000000E-02
8.737710000000E+01 2.400010000000E-01
2.567890000000E+01 5.947970000000E-01
3.740040000000E+00 2.808020000000E-01
S  3 1.00
4.211750000000E+01 1.138890000000E-01
9.628370000000E+00 9.208110000000E-01
2.853320000000E+00 -3.274470000000E-03
S  1 1.00
9.056610000000E-01 1.000000000000E+00
S  1 1.00
2.556110000000E-01 1.000000000000E+00
S  1 1.00
8.450000000000E-02 1.000000000000E+00
P  3 1.00
4.211750000000E+01 3.651140000000E-02
9.628370000000E+00 2.371530000000E-01
2.853320000000E+00 8.197020000000E-01
P  1 1.00
9.056610000000E-01 1.000000000000E+00
P  1 1.00
2.556110000000E-01 1.000000000000E+00
P  1 1.00
8.450000000000E-02 1.000000000000E+00
D  1 1.00
2.584000000000E+00 1.000000000000E+00
D  1 1.00
6.460000000000E-01 1.000000000000E+00
F  1 1.00
1.400000000000E+00 1.000000000000E+00
****
$end

--------------------------------------------------------------
 ----------------------------------------------------
       Standard Nuclear Orientation (Angstroms)
    I     Atom         X            Y            Z
 ----------------------------------------------------
    1      C      -1.050425     0.054191    -0.100098
    2      H      -1.576285     0.617528    -1.137559
    3      C      -2.135921     1.068523    -0.055649
    4      H      -3.160506     0.741951     0.030689
    5      H      -1.889136     2.103967     0.121715
    6      C      -1.442404    -1.375064     0.124642
    7      H      -0.747799    -2.078435    -0.330927
    8      H      -2.433153    -1.572683    -0.283331
    9      H      -1.484834    -1.590744     1.200095
   10      C       0.329042     0.524438     0.252328
   11      H       0.478853     1.542147    -0.113596
   12      H       0.414954     0.577391     1.350198
   13      C       1.455858    -0.345535    -0.287996
   14      H       1.383656    -0.410030    -1.374167
   15      H       1.382805    -1.362458     0.110212
   16      O       2.730143     0.203261    -0.013723
   17      H       2.853407     0.245959     0.937098
 ----------------------------------------------------
 Molecular Point Group                 C1    NOp =  1
 Largest Abelian Subgroup              C1    NOp =  1
 Nuclear Repulsion Energy =   244.7189706157 hartrees
 There are       25 alpha and       24 beta electrons
 Requested basis set is non-standard
 There are 138 shells and 314 basis functions

Total QAlloc Memory Limit   2000 MB
Mega-Array Size        61 MB
MEM_STATIC part        62 MB
 A cutoff of  1.0D-11 yielded   8935 shell pairs
 There are     45811 function pairs (     54970 Cartesian)
 Smallest overlap matrix eigenvalue = 1.25E-05

  Scale SEOQF with 1.000000e-01/1.000000e-01/1.000000e-01

 Standard Electronic Orientation quadrupole field applied
 Nucleus-field energy     =     0.0000000076 hartrees
 Guess MOs from core Hamiltonian diagonalization
 An unrestricted hybrid HF-DFT SCF calculation will be
 performed using Pulay DIIS extrapolation
 Exchange:     0.5679 Hartree-Fock + 1.0000 M08SO
 SCF converges when DIIS error is below 1.0E-08
 ---------------------------------------
  Cycle       Energy         DIIS Error
 ---------------------------------------
    1    -192.9260829967      9.20E-02
    2    -168.9790088384      4.76E-02
    3    -167.1795557407      6.71E-02
    4    -237.4402162248      3.87E-02
    5    -267.9530640078      1.77E-02
    6    -270.5972378737      1.04E-02
    7    -272.0798871512      2.22E-03
    8    -272.1214050472      1.33E-03
    9    -272.1391106057      4.14E-04
   10    -272.1416658455      1.01E-04
   11    -272.1418794547      4.00E-05
   12    -272.1419256511      9.25E-06
   13    -272.1419318279      3.69E-06
   14    -272.1419334440      2.10E-06
   15    -272.1419339062      7.23E-07
   16    -272.1419339627      2.88E-07
   17    -272.1419339675      1.24E-07
   18    -272.1419339688      4.20E-08
   19    -272.1419339690      1.28E-08
   20    -272.1419339693      5.28E-09 Convergence criterion met
 ---------------------------------------
 <S^2> = 0.7572
 SCF time:  CPU 1393.53 s  wall 1407.67 s
 SCF   energy in the final basis set = -272.1419339693
 Total energy in the final basis set = -272.1419339693
 Analysis of SCF Wavefunction
 
 --------------------------------------------------------------
                    Orbital Energies (a.u.)
 --------------------------------------------------------------
 
 Alpha MOs
 -- Occupied --
-19.564 -10.541 -10.523 -10.504 -10.500 -10.495  -1.139  -0.942
 -0.840  -0.799  -0.727  -0.635  -0.597  -0.559  -0.551  -0.529
 -0.499  -0.484  -0.461  -0.452  -0.427  -0.411  -0.390  -0.354
 -0.194
 -- Virtual --
 -0.025  -0.015  -0.009  -0.003   0.010   0.016   0.020   0.026
  0.034   0.045   0.051   0.062   0.078   0.083   0.085   0.095
  0.104   0.107   0.111   0.121   0.125   0.129   0.132   0.136
  0.149   0.151   0.157   0.160   0.168   0.174   0.187   0.191
  0.199   0.220   0.222   0.230   0.234   0.248   0.253   0.257
  0.272   0.283   0.301   0.307   0.314   0.327   0.336   0.338
  0.350   0.360   0.396   0.431   0.436   0.447   0.459   0.472
  0.491   0.509   0.525   0.539   0.548   0.555   0.563   0.570
  0.572   0.578   0.590   0.607   0.615   0.621   0.623   0.640
  0.650   0.667   0.672   0.688   0.697   0.701   0.713   0.733
  0.749   0.759   0.774   0.790   0.829   0.855   0.876   0.895
  0.906   0.933   0.934   0.972   0.976   1.008   1.018   1.031
  1.050   1.059   1.074   1.116   1.140   1.142   1.154   1.164
  1.177   1.184   1.197   1.212   1.218   1.227   1.236   1.259
  1.269   1.285   1.306   1.314   1.329   1.341   1.361   1.373
  1.383   1.396   1.409   1.430   1.441   1.445   1.450   1.465
  1.473   1.492   1.504   1.535   1.541   1.549   1.577   1.588
  1.619   1.631   1.661   1.685   1.694   1.732   1.792   1.859
  1.930   2.066   2.128   2.283   2.296   2.405   2.415   2.485
  2.512   2.554   2.574   2.583   2.613   2.651   2.670   2.705
  2.739   2.766   2.776   2.801   2.823   2.861   2.878   2.901
  2.930   2.931   2.943   2.954   2.982   3.008   3.013   3.055
  3.061   3.104   3.110   3.123   3.136   3.166   3.176   3.209
  3.224   3.244   3.250   3.282   3.300   3.306   3.331   3.363
  3.368   3.375   3.415   3.433   3.446   3.477   3.501   3.512
  3.533   3.561   3.581   3.616   3.629   3.642   3.656   3.676
  3.701   3.726   3.743   3.773   3.789   3.816   3.836   3.846
  3.866   3.887   3.918   3.932   3.951   3.963   4.001   4.025
  4.045   4.064   4.096   4.113   4.122   4.140   4.168   4.175
  4.178   4.199   4.212   4.217   4.234   4.280   4.285   4.309
  4.312   4.341   4.419   4.437   4.446   4.474   4.487   4.498
  4.539   4.573   4.595   4.646   4.695   4.749   4.834   4.960
  5.022   5.042   5.088   5.168   5.187   5.211   5.270   5.369
  5.438   5.468   5.495   5.506   5.532   5.562   5.594   5.622
  5.681   5.696   5.789   5.898   6.494   6.958   7.144   7.174
  7.213   7.465   7.593  24.001  24.168  24.197  24.280  24.329
 49.801
 
 Beta MOs
 -- Occupied --
-19.564 -10.541 -10.514 -10.500 -10.496 -10.495  -1.139  -0.933
 -0.836  -0.794  -0.725  -0.622  -0.596  -0.549  -0.546  -0.524
 -0.493  -0.481  -0.456  -0.448  -0.427  -0.408  -0.379  -0.348
 -- Virtual --
 -0.042  -0.024  -0.019  -0.017  -0.006   0.004   0.007   0.011
  0.015   0.030   0.038   0.045   0.053   0.067   0.072   0.078
  0.086   0.097   0.100   0.106   0.114   0.118   0.123   0.126
  0.130   0.143   0.146   0.149   0.154   0.164   0.167   0.180
  0.188   0.199   0.218   0.220   0.227   0.233   0.248   0.253
  0.258   0.271   0.280   0.300   0.312   0.317   0.323   0.334
  0.339   0.353   0.366   0.397   0.430   0.434   0.447   0.458
  0.473   0.492   0.509   0.529   0.536   0.553   0.561   0.568
  0.572   0.580   0.585   0.592   0.613   0.624   0.628   0.630
  0.643   0.659   0.670   0.675   0.692   0.703   0.704   0.718
  0.740   0.752   0.762   0.783   0.796   0.833   0.857   0.880
  0.898   0.912   0.939   0.940   0.975   0.983   1.013   1.021
  1.035   1.055   1.064   1.079   1.118   1.141   1.144   1.155
  1.165   1.180   1.188   1.199   1.216   1.223   1.233   1.239
  1.265   1.280   1.294   1.309   1.318   1.339   1.350   1.373
  1.382   1.387   1.402   1.414   1.433   1.446   1.449   1.457
  1.468   1.482   1.497   1.511   1.537   1.550   1.555   1.579
  1.599   1.627   1.639   1.673   1.697   1.704   1.738   1.808
  1.872   1.932   2.067   2.129   2.284   2.297   2.415   2.423
  2.494   2.526   2.567   2.596   2.598   2.640   2.675   2.697
  2.759   2.770   2.801   2.809   2.837   2.855   2.873   2.921
  2.929   2.943   2.960   2.980   2.998   3.016   3.021   3.065
  3.084   3.100   3.119   3.131   3.149   3.154   3.179   3.203
  3.216   3.242   3.254   3.289   3.301   3.320   3.333   3.353
  3.379   3.380   3.402   3.440   3.458   3.477   3.498   3.521
  3.532   3.548   3.577   3.589   3.624   3.650   3.665   3.684
  3.707   3.714   3.731   3.757   3.785   3.808   3.826   3.852
  3.860   3.888   3.907   3.924   3.948   3.965   3.977   4.014
  4.046   4.063   4.088   4.100   4.127   4.150   4.174   4.176
  4.191   4.193   4.223   4.237   4.253   4.265   4.297   4.304
  4.321   4.335   4.356   4.434   4.453   4.463   4.500   4.508
  4.523   4.555   4.603   4.639   4.671   4.743   4.791   4.905
  5.005   5.052   5.080   5.135   5.172   5.190   5.230   5.309
  5.373   5.454   5.478   5.531   5.565   5.584   5.594   5.625
  5.629   5.690   5.704   5.792   5.898   6.494   6.958   7.144
  7.174   7.213   7.465   7.593  24.007  24.173  24.201  24.285
 24.339  49.801
 --------------------------------------------------------------
 
          Ground-State Mulliken Net Atomic Charges

     Atom                 Charge (a.u.)    Spin (a.u.)
  --------------------------------------------------------
      1 C                     0.348767       0.525233
      2 H                     0.292722      -0.071234
      3 C                    -0.589650       0.608243
      4 H                     0.220551      -0.017417
      5 H                     0.213031      -0.017528
      6 C                    -0.895470      -0.058483
      7 H                     0.209872       0.003897
      8 H                     0.177210       0.001202
      9 H                     0.196676       0.048211
     10 C                    -0.478043      -0.087162
     11 H                     0.224836      -0.001791
     12 H                     0.194589       0.059553
     13 C                    -0.524026       0.004336
     14 H                     0.240028       0.002221
     15 H                     0.224779       0.002539
     16 O                    -0.336555      -0.000805
     17 H                     0.280684      -0.001016
  --------------------------------------------------------
  Sum of atomic charges =     0.000000
  Sum of spin   charges =     1.000000

 -----------------------------------------------------------------
                    Cartesian Multipole Moments
 -----------------------------------------------------------------
    Charge (ESU x 10^10)
                 0.0000
    Dipole Moment (Debye)
         X      -1.1537      Y      -0.6649      Z       0.9607
       Tot       1.6420
    Quadrupole Moments (Debye-Ang)
        XX     -46.1081     XY      -0.0141     YY     -40.3567
        XZ       4.4640     YZ       0.3916     ZZ     -39.6548
    Octapole Moments (Debye-Ang^2)
       XXX      -6.6585    XXY      -5.6017    XYY       5.0422
       YYY       0.3790    XXZ      12.8815    XYZ       0.6706
       YYZ       0.4101    XZZ      13.4204    YZZ      -1.3972
       ZZZ       1.4256
    Hexadecapole Moments (Debye-Ang^3)
      XXXX    -839.4294   XXXY      11.9790   XXYY    -181.1721
      XYYY       1.5632   YYYY    -246.1416   XXXZ      44.2968
      XXYZ       7.7748   XYYZ      -0.5914   YYYZ       2.9478
      XXZZ    -139.5358   XYZZ       6.4174   YYZZ     -60.6217
      XZZZ       5.4906   YZZZ      -0.0532   ZZZZ     -87.4597
 -----------------------------------------------------------------
 Calculating analytic gradient of the SCF energy
 Gradient of Coulomb and Exchange Energy
            1           2           3           4           5           6
    1   2.9855471   0.7491841   4.0254127   4.3771490  -0.5621324   3.0032466
    2  -0.4963424  -0.7399654  -2.9038449   1.0067340  -4.4446763   2.9620092
    3  -1.5279882   3.0373543   1.0099378  -0.2189878  -0.6146855  -0.3526351
            7           8           9          10          11          12
    1  -2.0850937   3.6211484   0.3407337  -1.6704246  -0.6671008  -0.4441522
    2   3.1237016   1.3397793   1.5158890   2.2749132  -4.5180841  -0.6626435
    3   1.4055274   1.1837524  -3.5482572   1.2195159   1.0270011  -4.3476171
           13          14          15          16          17
    1  -1.6797372   0.0583572  -0.0306852 -10.3531564  -1.6682962
    2  -0.5706427   0.5920803   4.1090212  -2.1556009  -0.4323275
    3   0.0878315   4.4529340  -1.1845008   2.6870065  -4.3161891
 Gradient of SCF Energy
            1           2           3           4           5           6
    1   0.0009615  -0.0000238  -0.0020249   0.0046106  -0.0010931  -0.0010719
    2  -0.0005638  -0.0002108   0.0018121   0.0013646  -0.0044453  -0.0025965
    3  -0.0010467   0.0034136  -0.0008386  -0.0001987  -0.0005247   0.0005725
            7           8           9          10          11          12
    1  -0.0035574   0.0047404   0.0002998   0.0006508  -0.0007825  -0.0004549
    2   0.0035666   0.0010638   0.0010985   0.0018138  -0.0050225  -0.0003952
    3   0.0020980   0.0018915  -0.0047350   0.0008834   0.0016351  -0.0048450
           13          14          15          16          17
    1  -0.0007077   0.0008030   0.0005144  -0.0014483  -0.0014161
    2  -0.0015956   0.0007924   0.0047177  -0.0006661  -0.0007336
    3   0.0005796   0.0046318  -0.0015174   0.0011940  -0.0031934
 Max gradient component =       5.023E-03
 RMS gradient           =       2.343E-03
 Gradient time:  CPU 98.09 s  wall 98.68 s
 Geometry Optimization Parameters
   NAtoms,    NIC,     NZ,  NCons,   NDum,   NFix, NCnnct, MaxDiis
       17     125      17       0       0       0       0       0


** GEOMETRY OPTIMIZATION IN DELOCALIZED INTERNAL COORDINATES **
   Searching for a Transition State

   Optimization Cycle:   1

                       Coordinates (Angstroms)
     ATOM              X           Y           Z
      1  C        -1.050425    0.054191   -0.100098
      2  H        -1.576285    0.617528   -1.137559
      3  C        -2.135921    1.068523   -0.055649
      4  H        -3.160506    0.741951    0.030689
      5  H        -1.889136    2.103967    0.121715
      6  C        -1.442404   -1.375064    0.124642
      7  H        -0.747799   -2.078435   -0.330927
      8  H        -2.433153   -1.572683   -0.283331
      9  H        -1.484834   -1.590744    1.200095
     10  C         0.329042    0.524438    0.252328
     11  H         0.478853    1.542147   -0.113596
     12  H         0.414954    0.577391    1.350198
     13  C         1.455858   -0.345535   -0.287996
     14  H         1.383656   -0.410030   -1.374167
     15  H         1.382805   -1.362458    0.110212
     16  O         2.730143    0.203261   -0.013723
     17  H         2.853407    0.245959    0.937098
   Point Group: c1    Number of degrees of freedom:    45


   Energy is   -272.141933969


 Attempting to Generate Delocalized Internal Coordinates
 GETINT wrote B to file, NVib is           45
 calling HSSCONV
 HCONV 3*NATOMS:           51
 wrote HINT to file
  writing hessian 

 45 Hessian modes will be used to form the next step
  Hessian Eigenvalues:
     0.006180    0.009255    0.009314    0.013756    0.016443    0.022478
     0.027202    0.036660    0.043865    0.049589    0.050821    0.057166
     0.059252    0.060047    0.088771    0.098849    0.105308    0.116802
     0.124598    0.125494    0.127405    0.139593    0.160000    0.160000
     0.160000    0.160000    0.180647    0.193639    0.219411    0.220326
     0.286007    0.301110    0.324380    0.324851    0.334073    0.339392
     0.342922    0.346029    0.347576    0.348669    0.349910    0.361006
     0.361358    0.433326    0.555319
**WARNING** Hessian does not have the Desired Local Structure

 Transition State Search - Taking P-RFO Step
 Searching for Lamda that Maximizes Along the Lowest mode
 Value Taken    Lamda =   0.00618114
 Searching for Lamda that Minimizes Along All other modes
 Value Taken    Lamda =  -0.00091020
 Calculated Step too Large.  Step scaled by  0.003660
 Step Taken.  Stepsize is  0.300000

                             Maximum     Tolerance    Cnvgd?
         Gradient           0.005967      0.000300      NO
         Displacement       0.140550      0.001200      NO
         Energy change     *********      0.000001      NO


 New Cartesian Coordinates Obtained by Inverse Iteration

 Displacement from previous Coordinates is:  0.439587
 ----------------------------------------------------
       Standard Nuclear Orientation (Angstroms)
    I     Atom         X            Y            Z
 ----------------------------------------------------
    1      C      -1.050361     0.052854    -0.098740
    2      H      -1.559447     0.633946    -1.134797
    3      C      -2.129034     1.074425    -0.053727
    4      H      -3.156938     0.754232     0.015731
    5      H      -1.877024     2.105578     0.140626
    6      C      -1.455273    -1.376413     0.101819
    7      H      -0.760163    -2.078661    -0.354782
    8      H      -2.442363    -1.561278    -0.320814
    9      H      -1.512415    -1.606256     1.173680
   10      C       0.328049     0.508193     0.276721
   11      H       0.489624     1.529637    -0.073545
   12      H       0.400928     0.545731     1.376197
   13      C       1.455115    -0.362700    -0.261663
   14      H       1.337001    -0.495336    -1.337607
   15      H       1.429702    -1.355020     0.199589
   16      O       2.723532     0.235736    -0.079342
   17      H       2.887320     0.339742     0.860582
 ----------------------------------------------------
 Molecular Point Group                 C1    NOp =  1
 Largest Abelian Subgroup              C1    NOp =  1
 Nuclear Repulsion Energy =   244.6973051699 hartrees
 There are       25 alpha and       24 beta electrons
 Applying Cartesian multipole field
    Component          Value
    ---------          -----
     (2,0,0)        1.00000E-11
     (0,2,0)        2.00000E-11
     (0,0,2)       -3.00000E-11
 Nucleus-field energy     =     0.0000000076 hartrees
 Requested basis set is non-standard
 There are 138 shells and 314 basis functions
 A cutoff of  1.0D-11 yielded   8939 shell pairs
 There are     45835 function pairs (     54991 Cartesian)
 Smallest overlap matrix eigenvalue = 1.22E-05
 Guess MOs from SCF MO coefficient file
Reading MOs from coefficient file
Reading MOs from coefficient file
 An unrestricted hybrid HF-DFT SCF calculation will be
 performed using Pulay DIIS extrapolation
 Exchange:     0.5679 Hartree-Fock + 1.0000 M08SO
 SCF converges when DIIS error is below 1.0E-08
Geometry optimization detected.  Setting ReadMinima to 0
Setting SaveMinima to 0
 Inaccurate integrated density:
   Number of electrons =    49
   Numerical integral  =    48.989048132854
   Relative error      =    -0.0223507493 %
 ---------------------------------------
  Cycle       Energy         DIIS Error
 ---------------------------------------
    1    -272.1335691328      7.08E-04
    2    -272.1415750734      1.02E-04
    3    -272.1417651892      4.97E-05
    4    -272.1417921592      2.26E-05
    5    -272.1417982458      6.07E-06
    6    -272.1417986522      2.09E-06
    7    -272.1417987065      5.15E-07
    8    -272.1417987139      2.11E-07
    9    -272.1417987148      8.13E-08
   10    -272.1417987152      2.26E-08
   11    -272.1417987152      7.07E-09 Convergence criterion met
 ---------------------------------------
 <S^2> = 0.7572
 SCF time:  CPU 771.03 s  wall 778.71 s
 SCF   energy in the final basis set = -272.1417987152
 Total energy in the final basis set = -272.1417987152
 Analysis of SCF Wavefunction
 
 --------------------------------------------------------------
                    Orbital Energies (a.u.)
 --------------------------------------------------------------
 
 Alpha MOs
 -- Occupied --
-19.564 -10.541 -10.523 -10.504 -10.500 -10.495  -1.139  -0.942
 -0.840  -0.799  -0.727  -0.635  -0.596  -0.559  -0.550  -0.530
 -0.497  -0.485  -0.461  -0.452  -0.426  -0.411  -0.390  -0.354
 -0.194
 -- Virtual --
 -0.024  -0.015  -0.009  -0.002   0.010   0.016   0.020   0.028
  0.034   0.045   0.051   0.062   0.078   0.084   0.086   0.095
  0.104   0.106   0.110   0.121   0.126   0.128   0.131   0.137
  0.148   0.151   0.158   0.161   0.170   0.174   0.187   0.193
  0.199   0.218   0.222   0.231   0.235   0.248   0.250   0.258
  0.272   0.282   0.304   0.308   0.314   0.328   0.334   0.336
  0.352   0.359   0.397   0.431   0.436   0.447   0.458   0.470
  0.493   0.509   0.526   0.538   0.549   0.555   0.563   0.569
  0.571   0.579   0.589   0.608   0.613   0.621   0.622   0.640
  0.651   0.667   0.674   0.687   0.699   0.702   0.707   0.733
  0.751   0.760   0.772   0.795   0.834   0.854   0.874   0.894
  0.910   0.931   0.937   0.973   0.975   1.010   1.017   1.038
  1.049   1.053   1.075   1.114   1.142   1.143   1.154   1.159
  1.178   1.183   1.198   1.215   1.220   1.231   1.240   1.259
  1.270   1.284   1.306   1.317   1.330   1.341   1.362   1.378
  1.387   1.397   1.410   1.430   1.438   1.446   1.449   1.463
  1.472   1.495   1.505   1.532   1.539   1.547   1.577   1.582
  1.622   1.627   1.662   1.683   1.700   1.732   1.795   1.856
  1.932   2.064   2.118   2.277   2.303   2.406   2.416   2.486
  2.509   2.553   2.573   2.583   2.606   2.656   2.668   2.705
  2.738   2.772   2.780   2.806   2.819   2.862   2.878   2.906
  2.929   2.932   2.942   2.954   2.981   3.009   3.014   3.056
  3.063   3.101   3.111   3.124   3.136   3.168   3.174   3.213
  3.225   3.241   3.251   3.282   3.300   3.305   3.334   3.359
  3.367   3.378   3.417   3.439   3.447   3.480   3.497   3.516
  3.527   3.568   3.580   3.612   3.623   3.643   3.660   3.680
  3.700   3.724   3.744   3.773   3.791   3.816   3.837   3.847
  3.865   3.885   3.915   3.931   3.955   3.961   4.010   4.022
  4.047   4.066   4.101   4.113   4.114   4.141   4.172   4.180
  4.182   4.202   4.209   4.217   4.233   4.277   4.286   4.304
  4.317   4.345   4.427   4.439   4.444   4.477   4.486   4.496
  4.530   4.568   4.597   4.653   4.700   4.751   4.831   4.959
  5.022   5.043   5.089   5.170   5.185   5.211   5.264   5.371
  5.436   5.462   5.503   5.506   5.532   5.559   5.596   5.622
  5.683   5.696   5.792   5.898   6.495   6.957   7.144   7.173
  7.209   7.465   7.593  24.001  24.168  24.196  24.282  24.329
 49.801
 
 Beta MOs
 -- Occupied --
-19.564 -10.541 -10.514 -10.500 -10.496 -10.495  -1.139  -0.933
 -0.836  -0.793  -0.725  -0.622  -0.596  -0.549  -0.545  -0.525
 -0.492  -0.481  -0.456  -0.449  -0.426  -0.408  -0.379  -0.348
 -- Virtual --
 -0.042  -0.024  -0.019  -0.018  -0.005   0.004   0.007   0.011
  0.015   0.030   0.037   0.045   0.053   0.068   0.072   0.078
  0.086   0.097   0.100   0.105   0.113   0.118   0.122   0.125
  0.130   0.143   0.146   0.149   0.155   0.165   0.168   0.179
  0.191   0.199   0.216   0.220   0.227   0.233   0.247   0.252
  0.259   0.272   0.279   0.304   0.311   0.318   0.324   0.332
  0.338   0.354   0.365   0.398   0.430   0.434   0.446   0.457
  0.471   0.494   0.510   0.530   0.536   0.554   0.561   0.569
  0.570   0.578   0.586   0.591   0.613   0.626   0.627   0.629
  0.642   0.660   0.670   0.677   0.691   0.704   0.706   0.712
  0.742   0.752   0.763   0.782   0.799   0.837   0.856   0.876
  0.897   0.917   0.936   0.943   0.977   0.980   1.015   1.019
  1.041   1.056   1.058   1.080   1.115   1.144   1.145   1.156
  1.161   1.181   1.185   1.200   1.219   1.226   1.236   1.244
  1.265   1.281   1.292   1.308   1.323   1.340   1.350   1.376
  1.382   1.390   1.404   1.415   1.433   1.443   1.451   1.456
  1.467   1.481   1.501   1.511   1.534   1.547   1.553   1.579
  1.592   1.630   1.634   1.674   1.694   1.711   1.739   1.811
  1.869   1.934   2.066   2.120   2.278   2.304   2.416   2.423
  2.493   2.524   2.567   2.594   2.600   2.635   2.676   2.698
  2.759   2.770   2.808   2.810   2.837   2.856   2.876   2.921
  2.930   2.941   2.959   2.981   2.999   3.015   3.025   3.060
  3.085   3.102   3.120   3.129   3.150   3.154   3.181   3.203
  3.221   3.244   3.249   3.289   3.302   3.322   3.334   3.354
  3.376   3.379   3.404   3.441   3.459   3.478   3.501   3.521
  3.532   3.549   3.581   3.591   3.618   3.650   3.661   3.686
  3.707   3.718   3.730   3.759   3.786   3.811   3.825   3.854
  3.858   3.887   3.904   3.923   3.947   3.965   3.976   4.024
  4.045   4.062   4.089   4.104   4.122   4.151   4.177   4.181
  4.192   4.201   4.224   4.234   4.255   4.264   4.290   4.306
  4.319   4.338   4.359   4.441   4.450   4.463   4.504   4.509
  4.521   4.548   4.597   4.643   4.677   4.746   4.793   4.902
  5.006   5.051   5.079   5.136   5.175   5.189   5.228   5.305
  5.375   5.449   5.482   5.532   5.566   5.583   5.594   5.626
  5.629   5.691   5.705   5.795   5.898   6.495   6.957   7.143
  7.173   7.209   7.465   7.593  24.007  24.172  24.200  24.287
 24.339  49.801
 --------------------------------------------------------------
 
          Ground-State Mulliken Net Atomic Charges

     Atom                 Charge (a.u.)    Spin (a.u.)
  --------------------------------------------------------
      1 C                     0.333145       0.526771
      2 H                     0.294044      -0.071159
      3 C                    -0.594052       0.606699
      4 H                     0.220525      -0.017092
      5 H                     0.213218      -0.017641
      6 C                    -0.884940      -0.057981
      7 H                     0.211780       0.004134
      8 H                     0.176810       0.001136
      9 H                     0.195218       0.048242
     10 C                    -0.465691      -0.088586
     11 H                     0.224367      -0.001619
     12 H                     0.199135       0.058070
     13 C                    -0.537650       0.006819
     14 H                     0.245859       0.001623
     15 H                     0.226596       0.002550
     16 O                    -0.340574      -0.000726
     17 H                     0.282211      -0.001240
  --------------------------------------------------------
  Sum of atomic charges =     0.000000
  Sum of spin   charges =     1.000000

 -----------------------------------------------------------------
                    Cartesian Multipole Moments
 -----------------------------------------------------------------
    Charge (ESU x 10^10)
                 0.0000
    Dipole Moment (Debye)
         X      -1.0808      Y      -0.6248      Z       1.0416
       Tot       1.6258
    Quadrupole Moments (Debye-Ang)
        XX     -45.6636     XY       0.1863     YY     -40.3080
        XZ       4.7970     YZ       0.6394     ZZ     -39.9473
    Octapole Moments (Debye-Ang^2)
       XXX      -4.4505    XXY      -4.8025    XYY       5.4265
       YYY       0.3669    XXZ      13.8454    XYZ       1.2435
       YYZ       0.8313    XZZ      12.5893    YZZ      -1.4984
       ZZZ       1.6011
    Hexadecapole Moments (Debye-Ang^3)
      XXXX    -830.9192   XXXY      13.0281   XXYY    -180.5404
      XYYY       0.3266   YYYY    -247.8209   XXXZ      49.3817
      XXYZ       9.2117   XYYZ       0.2632   YYYZ       2.5550
      XXZZ    -141.6653   XYZZ       5.9730   YYZZ     -60.5478
      XZZZ       6.1068   YZZZ      -0.6025   ZZZZ     -87.5810
 -----------------------------------------------------------------
 Calculating analytic gradient of the SCF energy
 Gradient of Coulomb and Exchange Energy
            1           2           3           4           5           6
    1   2.9865640   0.6993359   4.0593913   4.3891380  -0.5903312   3.0018208
    2  -0.5088313  -0.7731971  -2.9821702   0.9809405  -4.4325443   2.9483742
    3  -1.6536286   3.0295109   0.9507050  -0.1485510  -0.6860975  -0.2219258
            7           8           9          10          11          12
    1  -2.0835728   3.6045785   0.3931841  -1.6585937  -0.7168130  -0.4082834
    2   3.1206286   1.2975169   1.5620351   2.5118291  -4.5500743  -0.5631450
    3   1.4200328   1.2437548  -3.5253125   1.3347923   0.8660723  -4.3525390
           13          14          15          16          17
    1  -1.7172959   0.2279155  -0.1716652 -10.1951475  -1.8202256
    2  -0.6014342   0.9280447   4.0068644  -2.1876311  -0.7572060
    3  -0.1460797   4.3630890  -1.4460509   3.1655214  -4.1932934
 Gradient of SCF Energy
            1           2           3           4           5           6
    1   0.0011791  -0.0001155  -0.0019802   0.0046262  -0.0011068  -0.0012106
    2  -0.0006118  -0.0002802   0.0018840   0.0013228  -0.0044119  -0.0026829
    3  -0.0013672   0.0034095  -0.0008767  -0.0001560  -0.0005724   0.0004772
            7           8           9          10          11          12
    1  -0.0038410   0.0047109   0.0003477   0.0009426  -0.0008153  -0.0003173
    2   0.0035734   0.0010294   0.0011428   0.0018093  -0.0048395  -0.0006989
    3   0.0021190   0.0019834  -0.0046724   0.0003117   0.0020992  -0.0047581
           13          14          15          16          17
    1  -0.0006742   0.0009295   0.0004539  -0.0015181  -0.0016109
    2  -0.0015330   0.0008496   0.0047902  -0.0003825  -0.0009608
    3   0.0011465   0.0046982  -0.0016351   0.0008792  -0.0030860
 Max gradient component =       4.840E-03
 RMS gradient           =       2.364E-03
 Gradient time:  CPU 98.99 s  wall 99.87 s
 Geometry Optimization Parameters
   NAtoms,    NIC,     NZ,  NCons,   NDum,   NFix, NCnnct, MaxDiis
       17     125      17       0       0       0       0       0

 Cartesian Hessian Update
 Hessian Updated using Powell/Murtagh-Sargent Update
  Mixing factors:     0.000009 Powell
                      0.999991 Murtagh-Sargent


** GEOMETRY OPTIMIZATION IN DELOCALIZED INTERNAL COORDINATES **
   Searching for a Transition State

   Optimization Cycle:   2

                       Coordinates (Angstroms)
     ATOM              X           Y           Z
      1  C        -1.050361    0.052854   -0.098740
      2  H        -1.559447    0.633946   -1.134797
      3  C        -2.129034    1.074425   -0.053727
      4  H        -3.156938    0.754232    0.015731
      5  H        -1.877024    2.105578    0.140626
      6  C        -1.455273   -1.376413    0.101819
      7  H        -0.760163   -2.078661   -0.354782
      8  H        -2.442363   -1.561278   -0.320814
      9  H        -1.512415   -1.606256    1.173680
     10  C         0.328049    0.508193    0.276721
     11  H         0.489624    1.529637   -0.073545
     12  H         0.400928    0.545731    1.376197
     13  C         1.455115   -0.362700   -0.261663
     14  H         1.337001   -0.495336   -1.337607
     15  H         1.429702   -1.355020    0.199589
     16  O         2.723532    0.235736   -0.079342
     17  H         2.887320    0.339742    0.860582
   Point Group: c1    Number of degrees of freedom:    45


   Energy is   -272.141798715

 GETINT wrote B to file, NVib is           45
 Hessian Updated using Powell/Murtagh-Sargent Update
  Mixing factors:     0.654754 Powell
                      0.345246 Murtagh-Sargent

 43 Hessian modes will be used to form the next step
  Hessian Eigenvalues:
     0.002282    0.009275    0.009322    0.013756    0.016436    0.022478
     0.027202    0.036658    0.043865    0.049565    0.050780    0.057160
     0.059242    0.060037    0.088766    0.098730    0.105308    0.116799
     0.124598    0.125295    0.127395    0.139552    0.159911    0.160000
     0.180645    0.193020    0.218923    0.220253    0.285993    0.300956
     0.324275    0.324824    0.334068    0.339391    0.342913    0.346029
     0.347555    0.348668    0.349864    0.361006    0.361358    0.433301
     0.555318
**WARNING** Hessian does not have the Desired Local Structure

 Transition State Search - Taking P-RFO Step
 Searching for Lamda that Maximizes Along the Lowest mode
 Value Taken    Lamda =   0.00246126
 Searching for Lamda that Minimizes Along All other modes
 Value Taken    Lamda =  -0.00098141
 Calculated Step too Large.  Step scaled by  0.080971
 Step Taken.  Stepsize is  0.300000

                             Maximum     Tolerance    Cnvgd?
         Gradient           0.006291      0.000300      NO
         Displacement       0.138113      0.001200      NO
         Energy change      0.000135      0.000001      NO


 New Cartesian Coordinates Obtained by Inverse Iteration

 Displacement from previous Coordinates is:  0.446360
 ----------------------------------------------------
       Standard Nuclear Orientation (Angstroms)
    I     Atom         X            Y            Z
 ----------------------------------------------------
    1      C      -1.050789     0.056749    -0.095021
    2      H      -1.544306     0.654988    -1.129253
    3      C      -2.126603     1.081398    -0.048526
    4      H      -3.156960     0.763733     0.003166
    5      H      -1.873631     2.109276     0.164044
    6      C      -1.459088    -1.375506     0.075775
    7      H      -0.753759    -2.069637    -0.380002
    8      H      -2.439055    -1.554724    -0.367120
    9      H      -1.534044    -1.622742     1.143222
   10      C       0.326172     0.497924     0.301432
   11      H       0.503547     1.520003    -0.041312
   12      H       0.383824     0.527137     1.402564
   13      C       1.449850    -0.382694    -0.231834
   14      H       1.284869    -0.589947    -1.290518
   15      H       1.469468    -1.342986     0.294710
   16      O       2.711681     0.251666    -0.147008
   17      H       2.917078     0.419769     0.775612
 ----------------------------------------------------
 Molecular Point Group                 C1    NOp =  1
 Largest Abelian Subgroup              C1    NOp =  1
 Nuclear Repulsion Energy =   244.7037944712 hartrees
 There are       25 alpha and       24 beta electrons
 Applying Cartesian multipole field
    Component          Value
    ---------          -----
     (2,0,0)        1.00000E-11
     (0,2,0)        2.00000E-11
     (0,0,2)       -3.00000E-11
 Nucleus-field energy     =     0.0000000076 hartrees
 Requested basis set is non-standard
 There are 138 shells and 314 basis functions
 A cutoff of  1.0D-11 yielded   8935 shell pairs
 There are     45827 function pairs (     54983 Cartesian)
 Smallest overlap matrix eigenvalue = 1.20E-05
 Guess MOs from SCF MO coefficient file
Reading MOs from coefficient file
Reading MOs from coefficient file
 An unrestricted hybrid HF-DFT SCF calculation will be
 performed using Pulay DIIS extrapolation
 Exchange:     0.5679 Hartree-Fock + 1.0000 M08SO
 SCF converges when DIIS error is below 1.0E-08
Geometry optimization detected.  Setting ReadMinima to 0
Setting SaveMinima to 0
 Inaccurate integrated density:
   Number of electrons =    49
   Numerical integral  =    48.986878465800
   Relative error      =    -0.0267786412 %
 ---------------------------------------
  Cycle       Energy         DIIS Error
 ---------------------------------------
    1    -272.1328573072      7.03E-04
    2    -272.1413360098      1.05E-04
    3    -272.1415359656      5.09E-05
    4    -272.1415637718      2.31E-05
    5    -272.1415699055      6.51E-06
    6    -272.1415703679      2.18E-06
    7    -272.1415704267      5.25E-07
    8    -272.1415704349      2.15E-07
    9    -272.1415704361      8.32E-08
   10    -272.1415704364      2.25E-08
   11    -272.1415704365      7.80E-09 Convergence criterion met
 ---------------------------------------
 <S^2> = 0.7572
 SCF time:  CPU 768.13 s  wall 776.04 s
 SCF   energy in the final basis set = -272.1415704365
 Total energy in the final basis set = -272.1415704365
 Analysis of SCF Wavefunction
 
 --------------------------------------------------------------
                    Orbital Energies (a.u.)
 --------------------------------------------------------------
 
 Alpha MOs
 -- Occupied --
-19.565 -10.541 -10.523 -10.504 -10.500 -10.495  -1.139  -0.942
 -0.839  -0.799  -0.727  -0.635  -0.596  -0.559  -0.550  -0.531
 -0.495  -0.485  -0.461  -0.453  -0.425  -0.412  -0.390  -0.354
 -0.194
 -- Virtual --
 -0.024  -0.016  -0.009  -0.002   0.009   0.016   0.019   0.029
  0.034   0.044   0.051   0.063   0.078   0.083   0.086   0.095
  0.103   0.106   0.110   0.121   0.126   0.128   0.130   0.137
  0.148   0.151   0.158   0.162   0.170   0.174   0.187   0.196
  0.199   0.216   0.223   0.231   0.236   0.246   0.248   0.260
  0.273   0.281   0.305   0.310   0.314   0.328   0.332   0.336
  0.354   0.359   0.399   0.432   0.436   0.447   0.458   0.467
  0.496   0.509   0.527   0.537   0.549   0.555   0.562   0.566
  0.573   0.580   0.589   0.607   0.609   0.621   0.624   0.639
  0.652   0.667   0.676   0.685   0.697   0.701   0.703   0.732
  0.756   0.761   0.771   0.800   0.838   0.854   0.870   0.894
  0.914   0.926   0.944   0.972   0.975   1.010   1.014   1.042
  1.045   1.051   1.077   1.111   1.143   1.144   1.154   1.155
  1.175   1.183   1.201   1.216   1.225   1.235   1.246   1.259
  1.272   1.283   1.306   1.321   1.332   1.340   1.362   1.380
  1.388   1.397   1.415   1.430   1.433   1.445   1.450   1.460
  1.473   1.497   1.504   1.529   1.536   1.544   1.577   1.580
  1.619   1.623   1.662   1.679   1.704   1.730   1.801   1.853
  1.934   2.060   2.112   2.271   2.310   2.405   2.418   2.486
  2.508   2.549   2.576   2.587   2.601   2.663   2.668   2.705
  2.737   2.772   2.786   2.808   2.815   2.861   2.878   2.910
  2.927   2.931   2.942   2.956   2.981   3.006   3.024   3.058
  3.064   3.092   3.116   3.124   3.136   3.171   3.172   3.213
  3.228   3.240   3.253   3.282   3.301   3.303   3.335   3.353
  3.366   3.380   3.418   3.445   3.448   3.478   3.495   3.513
  3.527   3.573   3.579   3.609   3.620   3.644   3.665   3.683
  3.702   3.723   3.744   3.772   3.791   3.812   3.836   3.847
  3.862   3.882   3.914   3.931   3.957   3.958   4.017   4.021
  4.048   4.066   4.102   4.106   4.112   4.143   4.172   4.183
  4.189   4.201   4.211   4.217   4.233   4.272   4.287   4.298
  4.325   4.349   4.432   4.438   4.442   4.473   4.483   4.497
  4.522   4.561   4.601   4.658   4.702   4.755   4.828   4.958
  5.021   5.043   5.089   5.171   5.185   5.208   5.256   5.372
  5.434   5.455   5.503   5.510   5.532   5.555   5.595   5.620
  5.681   5.695   5.793   5.898   6.493   6.956   7.142   7.169
  7.205   7.466   7.593  24.000  24.165  24.193  24.281  24.327
 49.799
 
 Beta MOs
 -- Occupied --
-19.565 -10.541 -10.514 -10.500 -10.495 -10.495  -1.139  -0.932
 -0.835  -0.793  -0.724  -0.622  -0.595  -0.549  -0.544  -0.526
 -0.491  -0.481  -0.456  -0.449  -0.424  -0.408  -0.379  -0.348
 -- Virtual --
 -0.042  -0.024  -0.019  -0.018  -0.005   0.003   0.007   0.010
  0.016   0.030   0.036   0.045   0.053   0.068   0.072   0.078
  0.086   0.096   0.101   0.105   0.113   0.118   0.121   0.125
  0.130   0.143   0.146   0.150   0.155   0.164   0.169   0.180
  0.194   0.200   0.214   0.220   0.228   0.233   0.245   0.249
  0.261   0.272   0.278   0.306   0.311   0.319   0.324   0.329
  0.338   0.356   0.365   0.400   0.431   0.433   0.447   0.456
  0.469   0.497   0.509   0.529   0.537   0.554   0.561   0.566
  0.571   0.577   0.587   0.591   0.611   0.625   0.626   0.631
  0.640   0.662   0.671   0.678   0.690   0.702   0.705   0.707
  0.742   0.756   0.764   0.782   0.804   0.841   0.857   0.872
  0.898   0.922   0.931   0.949   0.978   0.978   1.015   1.016
  1.047   1.050   1.056   1.082   1.112   1.145   1.146   1.156
  1.157   1.178   1.187   1.203   1.221   1.230   1.240   1.250
  1.265   1.284   1.290   1.309   1.328   1.342   1.350   1.375
  1.384   1.392   1.404   1.419   1.432   1.438   1.452   1.455
  1.465   1.481   1.504   1.509   1.531   1.542   1.551   1.579
  1.589   1.628   1.630   1.673   1.690   1.715   1.739   1.816
  1.866   1.935   2.062   2.114   2.272   2.311   2.415   2.425
  2.493   2.523   2.564   2.594   2.605   2.631   2.682   2.700
  2.756   2.769   2.808   2.816   2.836   2.858   2.878   2.920
  2.932   2.940   2.957   2.982   3.000   3.014   3.036   3.056
  3.084   3.103   3.117   3.131   3.149   3.154   3.185   3.203
  3.224   3.245   3.247   3.291   3.302   3.322   3.334   3.354
  3.370   3.380   3.408   3.444   3.461   3.479   3.498   3.520
  3.526   3.553   3.580   3.600   3.614   3.649   3.659   3.688
  3.706   3.723   3.728   3.760   3.783   3.811   3.825   3.853
  3.856   3.885   3.900   3.924   3.947   3.965   3.973   4.031
  4.046   4.062   4.087   4.105   4.117   4.149   4.179   4.181
  4.195   4.210   4.225   4.230   4.254   4.263   4.285   4.305
  4.318   4.344   4.363   4.443   4.449   4.462   4.500   4.507
  4.518   4.547   4.590   4.646   4.683   4.745   4.797   4.900
  5.006   5.051   5.079   5.136   5.176   5.189   5.222   5.299
  5.375   5.443   5.487   5.532   5.566   5.580   5.591   5.625
  5.628   5.688   5.705   5.796   5.898   6.493   6.956   7.141
  7.169   7.205   7.466   7.593  24.005  24.169  24.196  24.285
 24.337  49.799
 --------------------------------------------------------------
 
          Ground-State Mulliken Net Atomic Charges

     Atom                 Charge (a.u.)    Spin (a.u.)
  --------------------------------------------------------
      1 C                     0.319276       0.525818
      2 H                     0.294342      -0.071041
      3 C                    -0.599782       0.605735
      4 H                     0.220282      -0.016774
      5 H                     0.213885      -0.017821
      6 C                    -0.869883      -0.058543
      7 H                     0.212784       0.004285
      8 H                     0.176744       0.001181
      9 H                     0.193742       0.048649
     10 C                    -0.455804      -0.087828
     11 H                     0.222557      -0.001081
     12 H                     0.203185       0.057261
     13 C                    -0.550466       0.008360
     14 H                     0.251438       0.001111
     15 H                     0.230669       0.002639
     16 O                    -0.346422      -0.000612
     17 H                     0.283454      -0.001339
  --------------------------------------------------------
  Sum of atomic charges =     0.000000
  Sum of spin   charges =     1.000000

 -----------------------------------------------------------------
                    Cartesian Multipole Moments
 -----------------------------------------------------------------
    Charge (ESU x 10^10)
                 0.0000
    Dipole Moment (Debye)
         X      -1.0026      Y      -0.5651      Z       1.1147
       Tot       1.6021
    Quadrupole Moments (Debye-Ang)
        XX     -45.2122     XY       0.4624     YY     -40.2267
        XZ       5.0988     YZ       0.8499     ZZ     -40.2836
    Octapole Moments (Debye-Ang^2)
       XXX      -1.9217    XXY      -3.7156    XYY       5.9513
       YYY       0.5185    XXZ      14.6067    XYZ       1.6730
       YYZ       1.1984    XZZ      11.6548    YZZ      -1.6600
       ZZZ       1.7771
    Hexadecapole Moments (Debye-Ang^3)
      XXXX    -819.9993   XXXY      16.4623   XXYY    -179.2798
      XYYY       0.6980   YYYY    -249.7601   XXXZ      53.7643
      XXYZ      10.1812   XYYZ       1.0592   YYYZ       2.0798
      XXZZ    -143.9842   XYZZ       5.7887   YYZZ     -60.5315
      XZZZ       6.9230   YZZZ      -1.3281   ZZZZ     -88.0879
 -----------------------------------------------------------------
 Calculating analytic gradient of the SCF energy
 Gradient of Coulomb and Exchange Energy
            1           2           3           4           5           6
    1   3.0065630   0.6558569   4.1024641   4.3967711  -0.6022755   2.9567392
    2  -0.5980605  -0.8119014  -3.0470766   0.9697569  -4.4188523   2.9476858
    3  -1.8411089   3.0199032   0.8881910  -0.0756707  -0.7628712  -0.0454317
            7           8           9          10          11          12
    1  -2.1116589   3.5733552   0.4589460  -1.6193898  -0.7833143  -0.3615824
    2   3.0968559   1.2792265   1.6150573   2.7689764  -4.5645127  -0.5004678
    3   1.4269657   1.3271276  -3.5037276   1.4193897   0.7521417  -4.3618880
           13          14          15          16          17
    1  -1.7493069   0.4050914  -0.3065322 -10.0451795  -1.9765472
    2  -0.7197506   1.2972789   3.8769328  -2.1100488  -1.0810999
    3  -0.3626743   4.2221395  -1.7042612   3.6465092  -4.0447339
 Gradient of SCF Energy
            1           2           3           4           5           6
    1   0.0014340  -0.0001214  -0.0018748   0.0042416  -0.0010509  -0.0011342
    2  -0.0006104  -0.0003344   0.0019649   0.0011858  -0.0040332  -0.0025109
    3  -0.0012309   0.0032365  -0.0009234  -0.0000894  -0.0005877   0.0003739
            7           8           9          10          11          12
    1  -0.0035422   0.0042674   0.0004342   0.0009859  -0.0006200  -0.0004278
    2   0.0032090   0.0009613   0.0011704   0.0016296  -0.0043829  -0.0010030
    3   0.0018810   0.0019067  -0.0043009  -0.0001225   0.0022177  -0.0042628
           13          14          15          16          17
    1  -0.0008768   0.0006774   0.0004999  -0.0013641  -0.0015282
    2  -0.0011921   0.0006745   0.0044643  -0.0002633  -0.0009296
    3   0.0008346   0.0042974  -0.0014528   0.0008049  -0.0025824
 Max gradient component =       4.464E-03
 RMS gradient           =       2.175E-03
 Gradient time:  CPU 96.78 s  wall 97.24 s
 Geometry Optimization Parameters
   NAtoms,    NIC,     NZ,  NCons,   NDum,   NFix, NCnnct, MaxDiis
       17     125      17       0       0       0       0       0

 Cartesian Hessian Update
 Hessian Updated using Powell/Murtagh-Sargent Update
  Mixing factors:     0.958816 Powell
                      0.041184 Murtagh-Sargent


** GEOMETRY OPTIMIZATION IN DELOCALIZED INTERNAL COORDINATES **
   Searching for a Transition State

   Optimization Cycle:   3

                       Coordinates (Angstroms)
     ATOM              X           Y           Z
      1  C        -1.050789    0.056749   -0.095021
      2  H        -1.544306    0.654988   -1.129253
      3  C        -2.126603    1.081398   -0.048526
      4  H        -3.156960    0.763733    0.003166
      5  H        -1.873631    2.109276    0.164044
      6  C        -1.459088   -1.375506    0.075775
      7  H        -0.753759   -2.069637   -0.380002
      8  H        -2.439055   -1.554724   -0.367120
      9  H        -1.534044   -1.622742    1.143222
     10  C         0.326172    0.497924    0.301432
     11  H         0.503547    1.520003   -0.041312
     12  H         0.383824    0.527137    1.402564
     13  C         1.449850   -0.382694   -0.231834
     14  H         1.284869   -0.589947   -1.290518
     15  H         1.469468   -1.342986    0.294710
     16  O         2.711681    0.251666   -0.147008
     17  H         2.917078    0.419769    0.775612
   Point Group: c1    Number of degrees of freedom:    45


   Energy is   -272.141570436

 GETINT wrote B to file, NVib is           45
 Hessian Updated using Powell/Murtagh-Sargent Update
  Mixing factors:     0.998908 Powell
                      0.001092 Murtagh-Sargent

 44 Hessian modes will be used to form the next step
  Hessian Eigenvalues:
     0.002292    0.009277    0.009333    0.013772    0.016442    0.022478
     0.027202    0.036661    0.043865    0.049595    0.050780    0.057160
     0.059244    0.060037    0.088766    0.098731    0.105308    0.116805
     0.124599    0.125295    0.127395    0.139552    0.159912    0.160000
     0.160011    0.180645    0.193021    0.218922    0.220273    0.286000
     0.300976    0.324281    0.324824    0.334072    0.339390    0.342914
     0.346029    0.347557    0.348669    0.349867    0.361006    0.361358
     0.433306    0.555323
**WARNING** Hessian does not have the Desired Local Structure

 Transition State Search - Taking P-RFO Step
 Searching for Lamda that Maximizes Along the Lowest mode
 Value Taken    Lamda =   0.00291467
 Searching for Lamda that Minimizes Along All other modes
 Value Taken    Lamda =  -0.00084187
 Calculated Step too Large.  Step scaled by  0.138566
 Step Taken.  Stepsize is  0.300000

                             Maximum     Tolerance    Cnvgd?
         Gradient           0.005695      0.000300      NO
         Displacement       0.133914      0.001200      NO
         Energy change      0.000228      0.000001      NO


 New Cartesian Coordinates Obtained by Inverse Iteration

 Displacement from previous Coordinates is:  0.449568
 ----------------------------------------------------
       Standard Nuclear Orientation (Angstroms)
    I     Atom         X            Y            Z
 ----------------------------------------------------
    1      C      -1.051561     0.062140    -0.091596
    2      H      -1.530525     0.677600    -1.123432
    3      C      -2.125934     1.087857    -0.042265
    4      H      -3.158318     0.771384    -0.008103
    5      H      -1.873506     2.112623     0.189371
    6      C      -1.460478    -1.373608     0.048857
    7      H      -0.740954    -2.058553    -0.401720
    8      H      -2.430641    -1.549959    -0.418558
    9      H      -1.557642    -1.637950     1.111411
   10      C       0.323618     0.490078     0.326862
   11      H       0.517271     1.511952    -0.010985
   12      H       0.364342     0.514707     1.429534
   13      C       1.444962    -0.401997    -0.199257
   14      H       1.235784    -0.683487    -1.233828
   15      H       1.511072    -1.325593     0.387906
   16      O       2.695900     0.260032    -0.216755
   17      H       2.944866     0.487181     0.682486
 ----------------------------------------------------
 Molecular Point Group                 C1    NOp =  1
 Largest Abelian Subgroup              C1    NOp =  1
 Nuclear Repulsion Energy =   244.6771337034 hartrees
 There are       25 alpha and       24 beta electrons
 Applying Cartesian multipole field
    Component          Value
    ---------          -----
     (2,0,0)        1.00000E-11
     (0,2,0)        2.00000E-11
     (0,0,2)       -3.00000E-11
 Nucleus-field energy     =     0.0000000076 hartrees
 Requested basis set is non-standard
 There are 138 shells and 314 basis functions
 A cutoff of  1.0D-11 yielded   8933 shell pairs
 There are     45757 function pairs (     54862 Cartesian)
 Smallest overlap matrix eigenvalue = 1.19E-05
 Guess MOs from SCF MO coefficient file
Reading MOs from coefficient file
Reading MOs from coefficient file
 An unrestricted hybrid HF-DFT SCF calculation will be
 performed using Pulay DIIS extrapolation
 Exchange:     0.5679 Hartree-Fock + 1.0000 M08SO
 SCF converges when DIIS error is below 1.0E-08
Geometry optimization detected.  Setting ReadMinima to 0
Setting SaveMinima to 0
 Inaccurate integrated density:
   Number of electrons =    49
   Numerical integral  =    48.985469329625
   Relative error      =    -0.0296544293 %
 ---------------------------------------
  Cycle       Energy         DIIS Error
 ---------------------------------------
    1    -272.1321448429      7.12E-04
    2    -272.1409477301      1.06E-04
    3    -272.1411518790      5.13E-05
    4    -272.1411806544      2.26E-05
    5    -272.1411868031      6.23E-06
    6    -272.1411872470      2.11E-06
    7    -272.1411873013      5.16E-07
    8    -272.1411873090      2.09E-07
    9    -272.1411873101      8.20E-08
   10    -272.1411873104      2.24E-08
   11    -272.1411873106      7.74E-09 Convergence criterion met
 ---------------------------------------
 <S^2> = 0.7572
 SCF time:  CPU 757.70 s  wall 765.42 s
 SCF   energy in the final basis set = -272.1411873106
 Total energy in the final basis set = -272.1411873106
 Analysis of SCF Wavefunction
 
 --------------------------------------------------------------
                    Orbital Energies (a.u.)
 --------------------------------------------------------------
 
 Alpha MOs
 -- Occupied --
-19.565 -10.542 -10.523 -10.504 -10.500 -10.495  -1.139  -0.941
 -0.839  -0.798  -0.726  -0.635  -0.595  -0.559  -0.550  -0.531
 -0.493  -0.486  -0.460  -0.453  -0.423  -0.412  -0.390  -0.354
 -0.193
 -- Virtual --
 -0.024  -0.016  -0.009  -0.001   0.009   0.015   0.019   0.029
  0.034   0.044   0.051   0.063   0.078   0.083   0.087   0.096
  0.102   0.106   0.110   0.121   0.125   0.128   0.130   0.138
  0.147   0.151   0.158   0.162   0.170   0.174   0.188   0.198
  0.200   0.214   0.223   0.229   0.237   0.242   0.247   0.262
  0.274   0.282   0.305   0.310   0.314   0.328   0.331   0.337
  0.356   0.360   0.401   0.433   0.435   0.447   0.458   0.465
  0.500   0.508   0.527   0.537   0.548   0.555   0.561   0.564
  0.575   0.580   0.589   0.604   0.607   0.620   0.626   0.637
  0.653   0.668   0.678   0.683   0.692   0.700   0.702   0.732
  0.760   0.761   0.773   0.806   0.842   0.855   0.867   0.895
  0.915   0.921   0.950   0.972   0.975   1.008   1.012   1.034
  1.047   1.056   1.078   1.107   1.143   1.147   1.153   1.154
  1.172   1.188   1.204   1.218   1.230   1.237   1.252   1.260
  1.276   1.282   1.307   1.323   1.335   1.339   1.359   1.381
  1.385   1.392   1.418   1.432   1.432   1.440   1.451   1.457
  1.476   1.496   1.501   1.524   1.533   1.541   1.576   1.579
  1.613   1.620   1.660   1.675   1.707   1.727   1.809   1.850
  1.936   2.056   2.108   2.264   2.316   2.405   2.420   2.488
  2.509   2.542   2.579   2.592   2.600   2.665   2.675   2.704
  2.735   2.772   2.790   2.807   2.811   2.861   2.876   2.912
  2.923   2.929   2.943   2.957   2.983   3.004   3.033   3.059
  3.064   3.085   3.115   3.126   3.138   3.169   3.173   3.211
  3.232   3.241   3.257   3.282   3.300   3.302   3.334   3.349
  3.367   3.382   3.419   3.442   3.453   3.473   3.495   3.505
  3.531   3.569   3.584   3.605   3.618   3.644   3.669   3.682
  3.705   3.720   3.744   3.770   3.790   3.806   3.836   3.848
  3.859   3.882   3.913   3.932   3.952   3.959   4.014   4.030
  4.050   4.067   4.093   4.104   4.108   4.145   4.168   4.184
  4.190   4.202   4.213   4.216   4.233   4.271   4.287   4.295
  4.332   4.352   4.426   4.438   4.444   4.465   4.478   4.493
  4.519   4.555   4.603   4.660   4.701   4.762   4.824   4.957
  5.019   5.044   5.087   5.170   5.186   5.204   5.247   5.370
  5.433   5.448   5.499   5.514   5.532   5.552   5.593   5.616
  5.676   5.695   5.794   5.896   6.490   6.955   7.140   7.165
  7.202   7.466   7.592  23.996  24.162  24.187  24.276  24.322
 49.798
 
 Beta MOs
 -- Occupied --
-19.565 -10.542 -10.514 -10.500 -10.496 -10.496  -1.139  -0.932
 -0.835  -0.793  -0.724  -0.622  -0.594  -0.550  -0.543  -0.526
 -0.490  -0.481  -0.455  -0.450  -0.423  -0.408  -0.379  -0.348
 -- Virtual --
 -0.042  -0.024  -0.019  -0.018  -0.004   0.003   0.007   0.010
  0.016   0.031   0.036   0.045   0.054   0.069   0.073   0.078
  0.086   0.096   0.101   0.104   0.112   0.117   0.122   0.125
  0.130   0.142   0.145   0.149   0.155   0.163   0.169   0.181
  0.197   0.201   0.212   0.220   0.226   0.235   0.243   0.247
  0.263   0.272   0.279   0.307   0.311   0.320   0.324   0.328
  0.339   0.359   0.366   0.402   0.432   0.433   0.446   0.456
  0.466   0.500   0.509   0.528   0.538   0.554   0.560   0.563
  0.572   0.577   0.587   0.590   0.609   0.623   0.625   0.633
  0.638   0.663   0.671   0.679   0.688   0.698   0.703   0.707
  0.741   0.762   0.765   0.782   0.809   0.845   0.859   0.867
  0.899   0.921   0.928   0.956   0.977   0.978   1.013   1.014
  1.041   1.052   1.059   1.083   1.108   1.144   1.148   1.155
  1.156   1.174   1.193   1.206   1.223   1.235   1.243   1.256
  1.266   1.287   1.288   1.311   1.330   1.345   1.349   1.370
  1.385   1.387   1.401   1.421   1.434   1.437   1.448   1.455
  1.464   1.483   1.504   1.505   1.527   1.537   1.550   1.578
  1.587   1.622   1.627   1.671   1.687   1.719   1.737   1.823
  1.864   1.937   2.058   2.110   2.266   2.316   2.414   2.427
  2.494   2.525   2.558   2.597   2.610   2.629   2.688   2.702
  2.754   2.768   2.806   2.820   2.835   2.857   2.880   2.917
  2.934   2.938   2.956   2.983   3.001   3.016   3.040   3.059
  3.083   3.102   3.113   3.132   3.150   3.155   3.184   3.203
  3.226   3.244   3.248   3.294   3.302   3.321   3.331   3.353
  3.364   3.381   3.410   3.447   3.460   3.481   3.491   3.516
  3.522   3.558   3.575   3.608   3.611   3.648   3.658   3.688
  3.705   3.723   3.730   3.761   3.779   3.811   3.822   3.849
  3.857   3.882   3.898   3.925   3.948   3.965   3.970   4.032
  4.054   4.060   4.083   4.100   4.117   4.147   4.175   4.180
  4.199   4.217   4.220   4.228   4.251   4.262   4.283   4.307
  4.316   4.349   4.367   4.436   4.449   4.460   4.488   4.505
  4.515   4.550   4.583   4.648   4.688   4.742   4.803   4.897
  5.005   5.049   5.078   5.135   5.176   5.190   5.213   5.293
  5.373   5.438   5.490   5.532   5.562   5.578   5.587   5.621
  5.625   5.683   5.705   5.797   5.896   6.490   6.955   7.139
  7.165   7.202   7.466   7.592  24.001  24.166  24.191  24.281
 24.333  49.798
 --------------------------------------------------------------
 
          Ground-State Mulliken Net Atomic Charges

     Atom                 Charge (a.u.)    Spin (a.u.)
  --------------------------------------------------------
      1 C                     0.306100       0.522734
      2 H                     0.293636      -0.070866
      3 C                    -0.602126       0.604736
      4 H                     0.219972      -0.016455
      5 H                     0.214495      -0.018060
      6 C                    -0.851482      -0.059393
      7 H                     0.211284       0.004299
      8 H                     0.177077       0.001275
      9 H                     0.191928       0.049238
     10 C                    -0.450495      -0.084645
     11 H                     0.219697      -0.000347
     12 H                     0.205890       0.056912
     13 C                    -0.556991       0.008839
     14 H                     0.253373       0.000735
     15 H                     0.235169       0.002782
     16 O                    -0.351444      -0.000484
     17 H                     0.283915      -0.001302
  --------------------------------------------------------
  Sum of atomic charges =     0.000000
  Sum of spin   charges =     1.000000

 -----------------------------------------------------------------
                    Cartesian Multipole Moments
 -----------------------------------------------------------------
    Charge (ESU x 10^10)
                 0.0000
    Dipole Moment (Debye)
         X      -0.9159      Y      -0.5000      Z       1.1831
       Tot       1.5775
    Quadrupole Moments (Debye-Ang)
        XX     -44.7082     XY       0.7512     YY     -40.1272
        XZ       5.3603     YZ       1.0105     ZZ     -40.6605
    Octapole Moments (Debye-Ang^2)
       XXX       0.9342    XXY      -2.5465    XYY       6.5451
       YYY       0.7323    XXZ      15.1631    XYZ       1.9346
       YYZ       1.5142    XZZ      10.6288    YZZ      -1.8502
       ZZZ       2.0270
    Hexadecapole Moments (Debye-Ang^3)
      XXXX    -807.6975   XXXY      20.6599   XXYY    -177.7384
      XYYY       1.6931   YYYY    -251.6000   XXXZ      57.4020
      XXYZ      10.6539   XYYZ       1.7580   YYYZ       1.6650
      XXZZ    -146.5594   XYZZ       5.6053   YYZZ     -60.6060
      XZZZ       8.0185   YZZZ      -2.1009   ZZZZ     -89.1323
 -----------------------------------------------------------------
 Calculating analytic gradient of the SCF energy
 Gradient of Coulomb and Exchange Energy
            1           2           3           4           5           6
    1   3.0299826   0.6231924   4.1325527   4.4016503  -0.6075906   2.8574391
    2  -0.7322204  -0.8579737  -3.0893534   0.9623758  -4.4020293   2.9594736
    3  -1.9755523   3.0077069   0.8297783  -0.0043517  -0.8426107   0.1449945
            7           8           9          10          11          12
    1  -2.1395602   3.5312675   0.5500273  -1.5402363  -0.8505884  -0.3089734
    2   3.0771123   1.2710804   1.6666536   3.0314107  -4.5715650  -0.4678664
    3   1.4200371   1.4224780  -3.4852454   1.4287512   0.6606633  -4.3775815
           13          14          15          16          17
    1  -1.7869684   0.5651037  -0.4552313  -9.8621576  -2.1399094
    2  -0.8685678   1.6517326   3.7407573  -2.0040712  -1.3669494
    3  -0.6140669   4.0443396  -1.9419513   4.1562279  -3.8736169
 Gradient of SCF Energy
            1           2           3           4           5           6
    1   0.0013157  -0.0001082  -0.0016494   0.0036561  -0.0009209  -0.0009712
    2  -0.0004143  -0.0003593   0.0018573   0.0009878  -0.0034807  -0.0022089
    3  -0.0011507   0.0029144  -0.0008983  -0.0000214  -0.0005535   0.0001862
            7           8           9          10          11          12
    1  -0.0030420   0.0036276   0.0005115   0.0008936  -0.0003512  -0.0005136
    2   0.0027272   0.0008325   0.0010719   0.0014501  -0.0037515  -0.0011751
    3   0.0015577   0.0017500  -0.0036980  -0.0003885   0.0021600  -0.0036003
           13          14          15          16          17
    1  -0.0008329   0.0004944   0.0004610  -0.0010898  -0.0014807
    2  -0.0007688   0.0004941   0.0038007  -0.0001014  -0.0009616
    3   0.0008989   0.0036799  -0.0012006   0.0005688  -0.0022045
 Max gradient component =       3.801E-03
 RMS gradient           =       1.887E-03
 Gradient time:  CPU 102.15 s  wall 102.64 s
 Geometry Optimization Parameters
   NAtoms,    NIC,     NZ,  NCons,   NDum,   NFix, NCnnct, MaxDiis
       17     125      17       0       0       0       0       0

 Cartesian Hessian Update
 Hessian Updated using Powell/Murtagh-Sargent Update
  Mixing factors:     0.988744 Powell
                      0.011256 Murtagh-Sargent


** GEOMETRY OPTIMIZATION IN DELOCALIZED INTERNAL COORDINATES **
   Searching for a Transition State

   Optimization Cycle:   4

                       Coordinates (Angstroms)
     ATOM              X           Y           Z
      1  C        -1.051561    0.062140   -0.091596
      2  H        -1.530525    0.677600   -1.123432
      3  C        -2.125934    1.087857   -0.042265
      4  H        -3.158318    0.771384   -0.008103
      5  H        -1.873506    2.112623    0.189371
      6  C        -1.460478   -1.373608    0.048857
      7  H        -0.740954   -2.058553   -0.401720
      8  H        -2.430641   -1.549959   -0.418558
      9  H        -1.557642   -1.637950    1.111411
     10  C         0.323618    0.490078    0.326862
     11  H         0.517271    1.511952   -0.010985
     12  H         0.364342    0.514707    1.429534
     13  C         1.444962   -0.401997   -0.199257
     14  H         1.235784   -0.683487   -1.233828
     15  H         1.511072   -1.325593    0.387906
     16  O         2.695900    0.260032   -0.216755
     17  H         2.944866    0.487181    0.682486
   Point Group: c1    Number of degrees of freedom:    45


   Energy is   -272.141187311

 GETINT wrote B to file, NVib is           45
 Hessian Updated using Powell/Murtagh-Sargent Update
  Mixing factors:     0.954055 Powell
                      0.045945 Murtagh-Sargent

 45 Hessian modes will be used to form the next step
  Hessian Eigenvalues:
     0.001835    0.009282    0.009321    0.013769    0.016446    0.022478
     0.027202    0.036653    0.043864    0.049595    0.050776    0.057160
     0.059242    0.060036    0.088757    0.098731    0.105306    0.116796
     0.124599    0.125291    0.127394    0.139548    0.159911    0.159994
     0.160000    0.160009    0.180630    0.192991    0.218873    0.220273
     0.285988    0.300886    0.324261    0.324824    0.334069    0.339389
     0.342893    0.346028    0.347551    0.348669    0.349866    0.361006
     0.361359    0.433306    0.555305
**WARNING** Hessian does not have the Desired Local Structure

 Transition State Search - Taking P-RFO Step
 Searching for Lamda that Maximizes Along the Lowest mode
 Value Taken    Lamda =   0.00302234
 Searching for Lamda that Minimizes Along All other modes
 Value Taken    Lamda =  -0.00063688
 Calculated Step too Large.  Step scaled by  0.187816
 Step Taken.  Stepsize is  0.300000

                             Maximum     Tolerance    Cnvgd?
         Gradient           0.005032      0.000300      NO
         Displacement       0.132639      0.001200      NO
         Energy change      0.000383      0.000001      NO


 New Cartesian Coordinates Obtained by Inverse Iteration

 Displacement from previous Coordinates is:  0.442379
 ----------------------------------------------------
       Standard Nuclear Orientation (Angstroms)
    I     Atom         X            Y            Z
 ----------------------------------------------------
    1      C      -1.051991     0.066801    -0.088868
    2      H      -1.516861     0.699526    -1.118032
    3      C      -2.124662     1.093570    -0.036055
    4      H      -3.159107     0.778966    -0.018782
    5      H      -1.872549     2.115095     0.214184
    6      C      -1.462398    -1.371540     0.023272
    7      H      -0.726861    -2.049626    -0.415016
    8      H      -2.419502    -1.545535    -0.473746
    9      H      -1.588632    -1.649661     1.080461
   10      C       0.320786     0.481773     0.352906
   11      H       0.529123     1.504162     0.021367
   12      H       0.343472     0.501514     1.456898
   13      C       1.442161    -0.418893    -0.167647
   14      H       1.192602    -0.771283    -1.172250
   15      H       1.558542    -1.302399     0.472786
   16      O       2.675967     0.265798    -0.286424
   17      H       2.968166     0.546139     0.584877
 ----------------------------------------------------
 Molecular Point Group                 C1    NOp =  1
 Largest Abelian Subgroup              C1    NOp =  1
 Nuclear Repulsion Energy =   244.6244161387 hartrees
 There are       25 alpha and       24 beta electrons
 Applying Cartesian multipole field
    Component          Value
    ---------          -----
     (2,0,0)        1.00000E-11
     (0,2,0)        2.00000E-11
     (0,0,2)       -3.00000E-11
 Nucleus-field energy     =     0.0000000076 hartrees
 Requested basis set is non-standard
 There are 138 shells and 314 basis functions
 A cutoff of  1.0D-11 yielded   8931 shell pairs
 There are     45743 function pairs (     54851 Cartesian)
 Smallest overlap matrix eigenvalue = 1.20E-05
 Guess MOs from SCF MO coefficient file
Reading MOs from coefficient file
Reading MOs from coefficient file
 An unrestricted hybrid HF-DFT SCF calculation will be
 performed using Pulay DIIS extrapolation
 Exchange:     0.5679 Hartree-Fock + 1.0000 M08SO
 SCF converges when DIIS error is below 1.0E-08
Geometry optimization detected.  Setting ReadMinima to 0
Setting SaveMinima to 0
 Inaccurate integrated density:
   Number of electrons =    49
   Numerical integral  =    48.984039664948
   Relative error      =    -0.0325721124 %
 ---------------------------------------
  Cycle       Energy         DIIS Error
 ---------------------------------------
    1    -272.1309808657      7.00E-04
    2    -272.1404282585      1.06E-04
    3    -272.1406263511      5.25E-05
    4    -272.1406572288      2.18E-05
    5    -272.1406632853      5.86E-06
    6    -272.1406637112      1.95E-06
    7    -272.1406637607      4.87E-07
    8    -272.1406637677      1.91E-07
    9    -272.1406637686      8.03E-08
   10    -272.1406637689      2.24E-08
   11    -272.1406637690      7.77E-09 Convergence criterion met
 ---------------------------------------
 <S^2> = 0.7573
 SCF time:  CPU 790.09 s  wall 797.56 s
 SCF   energy in the final basis set = -272.1406637690
 Total energy in the final basis set = -272.1406637690
 Analysis of SCF Wavefunction
 
 --------------------------------------------------------------
                    Orbital Energies (a.u.)
 --------------------------------------------------------------
 
 Alpha MOs
 -- Occupied --
-19.565 -10.542 -10.523 -10.504 -10.500 -10.496  -1.138  -0.941
 -0.838  -0.798  -0.726  -0.635  -0.594  -0.559  -0.549  -0.531
 -0.491  -0.486  -0.460  -0.453  -0.422  -0.412  -0.389  -0.354
 -0.193
 -- Virtual --
 -0.024  -0.016  -0.009  -0.001   0.008   0.015   0.019   0.030
  0.034   0.044   0.050   0.064   0.078   0.083   0.087   0.097
  0.102   0.107   0.109   0.121   0.124   0.128   0.131   0.138
  0.146   0.151   0.158   0.162   0.169   0.174   0.189   0.200
  0.201   0.212   0.222   0.226   0.238   0.240   0.247   0.263
  0.274   0.283   0.304   0.309   0.315   0.327   0.332   0.339
  0.359   0.362   0.402   0.435   0.436   0.447   0.458   0.464
  0.504   0.506   0.527   0.536   0.547   0.553   0.561   0.563
  0.576   0.580   0.589   0.601   0.606   0.620   0.628   0.635
  0.654   0.667   0.678   0.681   0.688   0.699   0.701   0.733
  0.759   0.762   0.780   0.811   0.844   0.856   0.868   0.896
  0.908   0.922   0.956   0.972   0.974   1.005   1.012   1.024
  1.044   1.065   1.079   1.104   1.141   1.149   1.152   1.157
  1.171   1.192   1.206   1.220   1.232   1.240   1.254   1.262
  1.278   1.283   1.308   1.324   1.333   1.345   1.349   1.376
  1.383   1.390   1.415   1.429   1.436   1.437   1.452   1.456
  1.480   1.489   1.497   1.518   1.532   1.541   1.575   1.579
  1.608   1.615   1.659   1.673   1.708   1.723   1.817   1.846
  1.938   2.054   2.107   2.258   2.320   2.406   2.421   2.489
  2.512   2.535   2.584   2.594   2.602   2.665   2.680   2.704
  2.732   2.771   2.790   2.804   2.806   2.861   2.871   2.912
  2.919   2.929   2.945   2.956   2.986   3.001   3.037   3.058
  3.068   3.079   3.112   3.126   3.143   3.163   3.171   3.209
  3.233   3.247   3.261   3.281   3.298   3.301   3.330   3.350
  3.367   3.382   3.418   3.435   3.455   3.469   3.492   3.500
  3.536   3.562   3.588   3.600   3.617   3.641   3.672   3.678
  3.706   3.718   3.744   3.770   3.788   3.801   3.837   3.849
  3.857   3.883   3.912   3.932   3.945   3.958   4.011   4.034
  4.050   4.068   4.085   4.102   4.103   4.145   4.160   4.181
  4.188   4.206   4.212   4.216   4.232   4.266   4.288   4.294
  4.339   4.355   4.415   4.431   4.448   4.455   4.473   4.485
  4.521   4.549   4.605   4.658   4.700   4.770   4.821   4.955
  5.016   5.043   5.084   5.168   5.188   5.199   5.239   5.367
  5.431   5.441   5.494   5.515   5.530   5.550   5.589   5.611
  5.671   5.690   5.795   5.894   6.486   6.954   7.137   7.161
  7.199   7.467   7.591  23.992  24.159  24.182  24.270  24.316
 49.797
 
 Beta MOs
 -- Occupied --
-19.565 -10.542 -10.514 -10.500 -10.496 -10.496  -1.138  -0.931
 -0.834  -0.792  -0.724  -0.621  -0.593  -0.550  -0.542  -0.526
 -0.489  -0.480  -0.455  -0.450  -0.422  -0.408  -0.379  -0.348
 -- Virtual --
 -0.042  -0.024  -0.019  -0.018  -0.004   0.002   0.007   0.009
  0.015   0.031   0.036   0.045   0.054   0.069   0.073   0.077
  0.087   0.095   0.101   0.104   0.112   0.116   0.122   0.125
  0.131   0.142   0.145   0.149   0.155   0.163   0.169   0.182
  0.198   0.202   0.210   0.220   0.223   0.236   0.241   0.246
  0.263   0.271   0.281   0.305   0.312   0.319   0.324   0.328
  0.341   0.361   0.368   0.403   0.433   0.434   0.446   0.455
  0.465   0.502   0.509   0.527   0.538   0.553   0.558   0.563
  0.572   0.578   0.586   0.591   0.607   0.622   0.624   0.635
  0.637   0.664   0.671   0.680   0.685   0.695   0.702   0.706
  0.741   0.765   0.766   0.786   0.815   0.846   0.860   0.868
  0.900   0.913   0.930   0.961   0.975   0.979   1.011   1.014
  1.031   1.048   1.068   1.083   1.105   1.142   1.150   1.155
  1.159   1.174   1.197   1.209   1.225   1.236   1.246   1.260
  1.268   1.284   1.292   1.315   1.332   1.345   1.349   1.360
  1.379   1.386   1.401   1.419   1.438   1.439   1.441   1.455
  1.464   1.486   1.496   1.504   1.522   1.534   1.550   1.577
  1.586   1.616   1.622   1.669   1.685   1.720   1.733   1.831
  1.859   1.939   2.055   2.109   2.260   2.321   2.414   2.428
  2.496   2.526   2.551   2.602   2.615   2.628   2.692   2.705
  2.750   2.766   2.803   2.819   2.835   2.852   2.882   2.913
  2.935   2.937   2.955   2.982   3.001   3.017   3.037   3.064
  3.083   3.099   3.110   3.133   3.152   3.156   3.176   3.205
  3.225   3.243   3.253   3.297   3.301   3.321   3.325   3.350
  3.362   3.383   3.409   3.446   3.454   3.478   3.488   3.509
  3.521   3.560   3.570   3.606   3.614   3.646   3.659   3.688
  3.702   3.718   3.735   3.762   3.777   3.810   3.818   3.848
  3.859   3.879   3.899   3.926   3.947   3.965   3.967   4.030
  4.055   4.062   4.079   4.096   4.117   4.143   4.165   4.181
  4.199   4.210   4.225   4.227   4.249   4.261   4.277   4.312
  4.315   4.355   4.371   4.426   4.444   4.457   4.477   4.499
  4.513   4.553   4.577   4.647   4.691   4.738   4.810   4.894
  5.003   5.046   5.076   5.132   5.174   5.192   5.204   5.288
  5.369   5.434   5.493   5.531   5.557   5.577   5.583   5.616
  5.623   5.677   5.701   5.796   5.894   6.487   6.954   7.137
  7.161   7.199   7.467   7.591  23.997  24.163  24.186  24.274
 24.327  49.797
 --------------------------------------------------------------
 
          Ground-State Mulliken Net Atomic Charges

     Atom                 Charge (a.u.)    Spin (a.u.)
  --------------------------------------------------------
      1 C                     0.297512       0.518699
      2 H                     0.292091      -0.070740
      3 C                    -0.599249       0.603545
      4 H                     0.219702      -0.016156
      5 H                     0.214833      -0.018342
      6 C                    -0.835843      -0.060378
      7 H                     0.206792       0.004249
      8 H                     0.177720       0.001456
      9 H                     0.189921       0.049927
     10 C                    -0.451186      -0.079868
     11 H                     0.216081       0.000374
[...]
 H         -0.001  0.190 -0.197    0.008  0.063 -0.052   -0.016  0.072 -0.096
 H          0.097  0.208 -0.185    0.020  0.075 -0.048    0.056  0.045 -0.097
 H         -0.092 -0.351 -0.013   -0.013 -0.080 -0.002   -0.028 -0.160  0.001
 C          0.090 -0.157  0.042   -0.028  0.051  0.075   -0.033  0.012  0.062
 H         -0.054 -0.241 -0.257   -0.555  0.130  0.054   -0.344  0.020 -0.040
 H          0.282  0.130 -0.002   -0.157  0.223  0.082    0.481  0.039  0.012
 C         -0.031  0.161 -0.010    0.347  0.050  0.007   -0.055 -0.069 -0.029
 H         -0.268 -0.162  0.033    0.477 -0.069 -0.003    0.405 -0.043 -0.062
 H          0.019  0.282  0.307    0.324  0.020 -0.002   -0.310 -0.069 -0.070
 O         -0.001 -0.025  0.003   -0.245 -0.109 -0.052    0.011  0.024  0.019
 H         -0.245 -0.112  0.043   -0.024 -0.024 -0.101    0.460  0.198 -0.056
 TransDip   0.000  0.000  0.000    0.000  0.000  0.000    0.000  0.000  0.000

 Mode:                22                     23                     24
 Frequency:      1221.58                1243.07                1288.15
 Force Cnst:      1.2072                 1.3162                 1.2636
 Red. Mass:       1.3730                 1.4457                 1.2925
 IR Active:          YES                    YES                    YES
 IR Intens:        0.000                  0.000                  0.000
 Raman Active:       YES                    YES                    YES
               X      Y      Z        X      Y      Z        X      Y      Z
 C         -0.016  0.111 -0.001   -0.127  0.041 -0.011   -0.087 -0.045 -0.031
 H          0.512  0.603  0.006   -0.371 -0.331 -0.076    0.055  0.101 -0.028
 C          0.001 -0.074  0.001    0.082 -0.008  0.006    0.028  0.003  0.004
 H          0.003 -0.012  0.179    0.139 -0.212 -0.161    0.065 -0.102  0.042
 H          0.191 -0.083 -0.239    0.026 -0.015  0.074   -0.045  0.027 -0.063
 C         -0.006 -0.050  0.036    0.045 -0.017 -0.019    0.027  0.003  0.011
 H         -0.041 -0.045 -0.030   -0.074 -0.144  0.005   -0.011  0.023 -0.072
 H          0.000 -0.009 -0.006   -0.028  0.127  0.061    0.007  0.156 -0.024
 H         -0.054 -0.154  0.009   -0.119  0.084 -0.005   -0.061  0.056  0.012
 C         -0.079 -0.028 -0.018   -0.051  0.006  0.066   -0.025  0.054 -0.042
 H          0.334 -0.094 -0.049    0.518 -0.124 -0.070   -0.140  0.133  0.124
 H          0.011  0.014 -0.024    0.289  0.088  0.032    0.654 -0.198 -0.080
 C          0.014  0.052 -0.004    0.002  0.051 -0.038    0.026 -0.024  0.082
 H          0.094 -0.049 -0.004    0.280 -0.136 -0.045   -0.342  0.214  0.092
 H          0.188  0.062  0.049    0.130  0.092  0.091    0.336 -0.122 -0.107
 O         -0.014 -0.024 -0.003   -0.023 -0.024  0.005    0.005 -0.005 -0.013
 H          0.008  0.003 -0.010    0.153  0.069 -0.029   -0.230 -0.096  0.029
 TransDip   0.000  0.000  0.000    0.000  0.000  0.000    0.000  0.000  0.000

 Mode:                25                     26                     27
 Frequency:      1322.07                1334.73                1364.97
 Force Cnst:      1.9284                 1.5889                 1.5193
 Red. Mass:       1.8726                 1.5138                 1.3841
 IR Active:          YES                    YES                    YES
 IR Intens:        0.000                  0.000                  0.000
 Raman Active:       YES                    YES                    YES
               X      Y      Z        X      Y      Z        X      Y      Z
 C          0.091  0.245 -0.004    0.142 -0.053  0.005    0.096  0.001 -0.001
 H         -0.326 -0.285 -0.072   -0.031 -0.123  0.047   -0.065 -0.116  0.018
 C          0.003 -0.045  0.003   -0.034  0.024 -0.003   -0.018  0.009 -0.001
 H         -0.021  0.022 -0.180   -0.102  0.221  0.022   -0.059  0.124 -0.010
 H          0.289 -0.131  0.111   -0.163  0.049  0.082   -0.057  0.012  0.062
 C         -0.018 -0.042 -0.002   -0.052 -0.007 -0.004   -0.031 -0.005  0.001
 H         -0.133 -0.241  0.103    0.136  0.141  0.058    0.035  0.036  0.035
 H         -0.010 -0.290  0.082   -0.015  0.025 -0.077    0.016 -0.048 -0.072
 H         -0.044 -0.229 -0.042    0.197  0.042  0.014    0.129  0.006  0.007
 C         -0.041 -0.055 -0.027   -0.084  0.038 -0.008   -0.089 -0.008 -0.001
 H         -0.462  0.033  0.033    0.178 -0.013 -0.032    0.198 -0.063 -0.022
 H          0.218 -0.003 -0.043    0.108 -0.115 -0.020    0.209 -0.044 -0.011
 C          0.007 -0.005  0.021   -0.069  0.020 -0.039   -0.022  0.010  0.087
 H         -0.227  0.055  0.035   -0.055 -0.137 -0.037    0.609  0.135  0.045
 H          0.161 -0.033 -0.027    0.737 -0.020 -0.010   -0.147 -0.049 -0.068
 O          0.002 -0.005  0.006   -0.010 -0.030  0.036    0.030  0.010 -0.067
 H          0.019  0.008  0.003    0.326  0.141 -0.028   -0.571 -0.240  0.043
 TransDip   0.000  0.000  0.000    0.000  0.000  0.000    0.000  0.000  0.000

 Mode:                28                     29                     30
 Frequency:      1400.41                1410.44                1413.27
 Force Cnst:      1.6329                 1.7370                 1.5052
 Red. Mass:       1.4132                 1.4820                 1.2790
 IR Active:          YES                    YES                    YES
 IR Intens:        0.000                  0.000                  0.000
 Raman Active:       YES                    YES                    YES
               X      Y      Z        X      Y      Z        X      Y      Z
 C          0.002  0.083  0.006    0.075 -0.046  0.004   -0.015  0.008  0.001
 H         -0.072 -0.049 -0.055   -0.021 -0.040  0.103   -0.027  0.032  0.050
 C          0.036 -0.043 -0.004   -0.079  0.076  0.006   -0.054  0.046  0.004
 H         -0.052  0.224 -0.004    0.090 -0.456 -0.072    0.113 -0.474 -0.086
 H         -0.157 -0.002  0.038    0.468 -0.050 -0.029    0.495 -0.078 -0.057
 C         -0.037 -0.146  0.032   -0.032  0.010  0.008   -0.010 -0.052  0.014
 H          0.229  0.315 -0.236   -0.017 -0.003  0.034    0.079  0.128 -0.115
 H         -0.020  0.434 -0.266    0.072 -0.018 -0.206   -0.003  0.183 -0.117
 H          0.162  0.505  0.149    0.242  0.038  0.023    0.058  0.217  0.064
 C         -0.017 -0.031 -0.008   -0.105  0.014  0.003    0.083 -0.006 -0.005
 H         -0.026  0.006  0.078    0.276 -0.055 -0.036   -0.230  0.062  0.046
 H          0.021  0.113 -0.008    0.154 -0.055 -0.010   -0.157  0.051  0.012
 C          0.040 -0.008 -0.010    0.099 -0.017 -0.025   -0.093  0.012  0.020
 H         -0.158  0.029  0.001   -0.359  0.039  0.002    0.328 -0.049 -0.005
 H         -0.229  0.028  0.039   -0.369  0.050  0.068    0.352 -0.056 -0.073
 O         -0.002  0.006  0.004   -0.008  0.005  0.011    0.008 -0.004 -0.009
 H          0.035  0.014 -0.001    0.085  0.040 -0.005   -0.067 -0.031  0.004
 TransDip   0.000  0.000  0.000    0.000  0.000  0.000    0.000  0.000  0.000

 Mode:                31                     32                     33
 Frequency:      1453.71                1470.62                1472.68
 Force Cnst:      1.3576                 1.3826                 1.3793
 Red. Mass:       1.0903                 1.0850                 1.0794
 IR Active:          YES                    YES                    YES
 IR Intens:        0.000                  0.000                  0.000
 Raman Active:       YES                    YES                    YES
               X      Y      Z        X      Y      Z        X      Y      Z
 C         -0.010 -0.023 -0.001    0.043 -0.011 -0.016   -0.051  0.018 -0.011
 H          0.018 -0.001  0.001    0.003 -0.006  0.011   -0.006  0.034 -0.041
 C          0.001  0.002  0.000   -0.025  0.018  0.001    0.018 -0.012  0.002
 H         -0.006  0.025  0.009    0.002 -0.072 -0.007    0.016 -0.005 -0.006
 H         -0.040  0.011  0.006    0.090 -0.009  0.005   -0.020 -0.004 -0.011
 C         -0.006  0.031  0.008    0.009 -0.027 -0.040   -0.037 -0.002 -0.027
 H         -0.124 -0.135  0.059    0.415  0.289  0.159    0.226 -0.140  0.594
 H          0.094 -0.060 -0.176   -0.293  0.216  0.547   -0.067  0.415 -0.118
 H          0.184 -0.051 -0.003   -0.357 -0.165 -0.071    0.486 -0.339 -0.051
 C         -0.003 -0.059 -0.044   -0.027 -0.021 -0.014    0.028  0.005  0.009
 H          0.109  0.189  0.629    0.060  0.055  0.212   -0.074 -0.017 -0.088
 H          0.081  0.616 -0.063    0.069  0.205 -0.026   -0.020 -0.076  0.013
 C         -0.015  0.013  0.005    0.006 -0.008 -0.003   -0.001  0.001  0.004
 H         -0.011 -0.143  0.012   -0.026  0.028 -0.003    0.012 -0.002  0.005
 H          0.022 -0.045 -0.126   -0.074  0.006  0.020   -0.022 -0.007 -0.013
 O          0.003  0.000  0.002    0.002  0.003  0.000    0.000  0.002 -0.001
 H          0.019  0.015 -0.001    0.002  0.003  0.000   -0.012 -0.008  0.001
 TransDip   0.000  0.000  0.000    0.000  0.000  0.000    0.000  0.000  0.000

 Mode:                34                     35                     36
 Frequency:      1497.54                2177.88                2879.23
 Force Cnst:      1.4389                 2.9877                 5.2339
 Red. Mass:       1.0890                 1.0691                 1.0716
 IR Active:          YES                    YES                    YES
 IR Intens:        0.000                  0.000                  0.000
 Raman Active:       YES                    YES                    YES
               X      Y      Z        X      Y      Z        X      Y      Z
 C         -0.003 -0.005  0.000   -0.020  0.022 -0.049   -0.002 -0.001 -0.003
 H          0.007  0.004  0.000   -0.002 -0.068  0.992    0.008 -0.007  0.011
 C          0.000  0.001  0.000    0.017 -0.013 -0.043   -0.001  0.000  0.000
 H          0.001 -0.001  0.003    0.030  0.042  0.017    0.001  0.002  0.001
 H         -0.005  0.002 -0.001   -0.040 -0.033  0.013   -0.002  0.001  0.001
 C         -0.002  0.007  0.002    0.002 -0.003  0.003    0.000 -0.001  0.003
 H         -0.034 -0.039  0.015    0.005 -0.005  0.008   -0.009  0.008  0.007
 H          0.024 -0.011 -0.047   -0.003  0.013  0.000    0.011  0.002  0.007
 H          0.049 -0.013  0.001   -0.001 -0.009 -0.011    0.000  0.004 -0.044
 C          0.004 -0.010 -0.007    0.003 -0.002  0.003   -0.006 -0.014 -0.074
 H         -0.008  0.039  0.113   -0.012  0.001  0.000    0.017  0.129 -0.074
 H         -0.012  0.118 -0.009    0.007  0.002 -0.011    0.077  0.041  0.979
 C         -0.017 -0.068 -0.046    0.000  0.000  0.001   -0.001 -0.002  0.004
 H          0.109  0.669 -0.087   -0.002  0.002  0.002   -0.006 -0.004 -0.049
 H          0.140  0.223  0.647   -0.001  0.000  0.000    0.005  0.028 -0.011
 O         -0.005 -0.006 -0.001    0.000  0.000  0.000    0.000  0.000  0.000
 H          0.019  0.000 -0.006    0.000  0.000  0.000    0.007  0.000  0.004
 TransDip   0.000  0.000  0.000    0.000  0.000  0.000    0.000  0.000  0.000

 Mode:                37                     38                     39
 Frequency:      2925.80                2963.92                2996.96
 Force Cnst:      5.3178                 5.5172                 5.7394
 Red. Mass:       1.0544                 1.0660                 1.0846
 IR Active:          YES                    YES                    YES
 IR Intens:        0.000                  0.000                  0.000
 Raman Active:       YES                    YES                    YES
               X      Y      Z        X      Y      Z        X      Y      Z
 C          0.001  0.001 -0.002    0.000 -0.001  0.000    0.001 -0.001  0.001
 H          0.008 -0.008  0.009    0.000  0.001  0.000    0.001 -0.003 -0.003
 C          0.000  0.001  0.000    0.000  0.000  0.000    0.000  0.001  0.000
 H         -0.002  0.002  0.001   -0.001 -0.001  0.000    0.000  0.002  0.001
 H         -0.002 -0.001  0.001    0.000  0.001  0.000   -0.004 -0.008 -0.001
 C          0.008  0.029 -0.058   -0.003  0.002  0.004    0.000  0.001  0.000
 H          0.157 -0.146 -0.115    0.032 -0.029 -0.019    0.004 -0.003 -0.002
 H         -0.212 -0.040 -0.109   -0.002  0.002  0.002    0.002  0.000  0.001
 H         -0.049 -0.174  0.918    0.002  0.007 -0.032    0.000  0.001  0.002
 C         -0.001  0.000 -0.003    0.002  0.015 -0.006   -0.010 -0.071  0.035
 H          0.001  0.003 -0.001   -0.029 -0.177  0.067    0.129  0.871 -0.325
 H          0.008  0.004  0.045    0.003  0.004  0.012   -0.012 -0.021 -0.107
 C          0.000 -0.002  0.001   -0.004 -0.071  0.001   -0.002 -0.009 -0.021
 H         -0.001 -0.001 -0.004    0.024  0.003  0.338    0.022  0.016  0.300
 H          0.002  0.021 -0.010    0.056  0.844 -0.354    0.004  0.085 -0.040
 O          0.000  0.000  0.000   -0.002 -0.001  0.000    0.000  0.000  0.000
 H          0.000  0.000  0.000   -0.002  0.000 -0.005    0.000 -0.001 -0.004
 TransDip   0.000  0.000  0.000    0.000  0.000  0.000    0.000  0.000  0.000

 Mode:                40                     41                     42
 Frequency:      3017.38                3027.42                3055.93
 Force Cnst:      5.7842                 5.9452                 6.0639
 Red. Mass:       1.0783                 1.1010                 1.1021
 IR Active:          YES                    YES                    YES
 IR Intens:        0.000                  0.000                  0.000
 Raman Active:       YES                    YES                    YES
               X      Y      Z        X      Y      Z        X      Y      Z
 C          0.000  0.001 -0.001    0.000  0.000  0.000   -0.001  0.000  0.000
 H         -0.001 -0.002  0.006    0.002  0.001  0.000   -0.002  0.001  0.000
 C          0.001  0.000  0.000    0.000  0.000  0.000    0.001  0.000  0.000
 H         -0.010 -0.004  0.001    0.000  0.000  0.000   -0.007 -0.005  0.000
 H          0.002  0.004  0.000    0.001  0.004  0.000    0.001  0.001  0.000
 C         -0.015 -0.040 -0.067    0.009  0.003  0.008   -0.088  0.027  0.004
 H         -0.434  0.405  0.250    0.023 -0.019 -0.012    0.471 -0.461 -0.302
 H          0.621  0.122  0.252   -0.127 -0.027 -0.054    0.607  0.133  0.271
 H         -0.019 -0.069  0.302    0.003  0.006 -0.029   -0.021  0.008 -0.010
 C          0.001  0.003 -0.002    0.002  0.018 -0.014    0.000  0.001 -0.001
 H         -0.006 -0.034  0.012   -0.029 -0.218  0.080   -0.001 -0.014  0.005
 H          0.002  0.002  0.009    0.004  0.009  0.087    0.001  0.001  0.007
 C          0.000  0.000 -0.011   -0.003  0.023 -0.085    0.000  0.004 -0.006
 H          0.007  0.007  0.126    0.054  0.056  0.878    0.003  0.004  0.052
 H          0.001 -0.007  0.001   -0.018 -0.338  0.126   -0.004 -0.056  0.022
 O          0.000  0.000  0.000    0.000  0.000  0.001    0.000  0.000  0.000
 H          0.001  0.000 -0.002    0.007  0.002 -0.013    0.001  0.000 -0.001
 TransDip   0.000  0.000  0.000    0.000  0.000  0.000    0.000  0.000  0.000

 Mode:                43                     44                     45
 Frequency:      3113.24                3228.29                3886.93
 Force Cnst:      5.9966                 6.8869                 9.4929
 Red. Mass:       1.0501                 1.1216                 1.0664
 IR Active:          YES                    YES                    YES
 IR Intens:        0.000                  0.000                  0.000
 Raman Active:       YES                    YES                    YES
               X      Y      Z        X      Y      Z        X      Y      Z
 C          0.003 -0.003  0.002   -0.001 -0.001  0.000    0.000  0.000  0.000
 H         -0.004  0.006 -0.031    0.000 -0.001  0.000    0.000  0.000  0.000
 C         -0.046  0.039  0.013   -0.068 -0.075 -0.005    0.000  0.000  0.000
 H          0.682  0.228 -0.046    0.653  0.206 -0.050    0.000  0.000  0.000
 H         -0.164 -0.663 -0.101    0.158  0.693  0.111    0.000  0.000  0.000
 C         -0.001  0.000  0.000    0.000  0.000 -0.001    0.000  0.000  0.000
 H          0.000  0.003  0.000    0.001 -0.001  0.000    0.000  0.000  0.000
 H          0.010  0.003  0.004    0.005  0.003  0.003    0.000  0.000  0.000
 H         -0.001  0.001  0.003    0.000  0.000  0.003    0.000  0.000  0.000
 C          0.000  0.001  0.000    0.000  0.000  0.001    0.000  0.000  0.001
 H         -0.001 -0.007  0.002    0.003  0.005 -0.002    0.000  0.000  0.000
 H         -0.001  0.001  0.001    0.000  0.000 -0.002   -0.002  0.001 -0.003
 C          0.000  0.000  0.000    0.000  0.000  0.000    0.001  0.000 -0.002
 H          0.000  0.000  0.002    0.000  0.000  0.000    0.000 -0.001  0.013
 H          0.000 -0.001  0.000    0.000  0.002  0.000    0.003  0.001  0.001
 O          0.000  0.000  0.000    0.000  0.000  0.000   -0.009 -0.006 -0.061
 H          0.000  0.000  0.000    0.000  0.000  0.000    0.133  0.094  0.985
 TransDip   0.000  0.000  0.000    0.000  0.000  0.000    0.000  0.000  0.000

 STANDARD THERMODYNAMIC QUANTITIES AT   298.15 K  AND     1.00 ATM

   This Molecule has  1 Imaginary Frequencies
   Zero point vibrational energy:       90.849 kcal/mol

   Atom    1 Element C  Has Mass   12.00000
   Atom    2 Element H  Has Mass    1.00783
   Atom    3 Element C  Has Mass   12.00000
   Atom    4 Element H  Has Mass    1.00783
   Atom    5 Element H  Has Mass    1.00783
   Atom    6 Element C  Has Mass   12.00000
   Atom    7 Element H  Has Mass    1.00783
   Atom    8 Element H  Has Mass    1.00783
   Atom    9 Element H  Has Mass    1.00783
   Atom   10 Element C  Has Mass   12.00000
   Atom   11 Element H  Has Mass    1.00783
   Atom   12 Element H  Has Mass    1.00783
   Atom   13 Element C  Has Mass   12.00000
   Atom   14 Element H  Has Mass    1.00783
   Atom   15 Element H  Has Mass    1.00783
   Atom   16 Element O  Has Mass   15.99491
   Atom   17 Element H  Has Mass    1.00783
   Molecular Mass:    87.081040 amu
   Principal axes and moments of inertia in atomic units:
                             1           2           3
    Eigenvalues --      255.95822  1024.09249  1210.15485
          X               0.99997    -0.00069     0.00775
          Y               0.00068     1.00000     0.00109
          Z              -0.00775    -0.00108     0.99997
   Rotational Symmetry Number is   1
   The Molecule is an Asymmetric Top
   Translational Enthalpy:        0.889 kcal/mol
   Rotational Enthalpy:           0.889 kcal/mol
   Vibrational Enthalpy:         94.207 kcal/mol
   gas constant (RT):             0.592 kcal/mol
   Translational Entropy:        39.306  cal/mol.K
   Rotational Entropy:           27.253  cal/mol.K
   Vibrational Entropy:          20.227  cal/mol.K

   Total Enthalpy:               96.577 kcal/mol
   Total Entropy:                86.785  cal/mol.K
Archival summary:
1\1\node24\FREQ\ProcedureUnspecified\BasisUnspecified\1511(2)\edames\MonApr2112:26:092014MonApr2112:26:092014\0\\#,FREQ,ProcedureUnspecified,BasisUnspecified,\\0,2\C\H,1,1.30052\C,2,1.30812,1,69.5352\H,3,1.08583,2,111.478,1,-111.771,0\H,3,1.08585,2,111.611,1,111.604,0\C,1,1.50324,2,115.17,3,-106.931,0\H,6,1.09677,1,112.721,2,-93.0571,0\H,6,1.09774,1,110.808,2,27.9027,0\H,6,1.10564,1,110.31,2,146.34,0\C,1,1.5042,2,115.003,3,106.683,0\H,10,1.10031,1,109.932,2,-26.3185,0\H,10,1.11063,1,108.927,2,-142.166,0\C,10,1.52868,1,114.417,2,95.7668,0\H,13,1.09774,10,109.817,1,-57.7846,0\H,13,1.10249,10,110.543,1,60.6068,0\O,13,1.41742,10,112.008,1,-175.638,0\H,16,0.962875,13,109.456,10,-59.9106,0\\\@

 Total job time:  65577.89s(wall), 64928.10s(cpu) 
 Mon Apr 21 12:26:09 2014

        *************************************************************
        *                                                           *
        *  Thank you very much for using Q-Chem.  Have a nice day.  *
        *                                                           *
        *************************************************************


0 sent ACK to 0 
now end server 0 ... 
cleanup process ... done
remove work dirs /tmp/qchem16440.0 -- /tmp/qchem16440.3
rm -rf /tmp/qchem16440.0
rm -rf /tmp/qchem16440.1
rm -rf /tmp/qchem16440.2
rm -rf /tmp/qchem16440.3
rm -rf /tmp/qchem16440
