
 Primary working directories    : /scratch/alongd/1771
 Secondary working directories  : /scratch/alongd/1771
 Wavefunction directory         : /home/alongd/wfu/
 Main file repository           : /scratch/alongd/1771/

 SHA1      : 5e3d8ac6839c721e2824de82269b4736200146bd
 NAME      : 2015.1.37
 ARCHNAME  : linux/x86_64
 FC        : /opt/intel/composer_xe_2015.1.133/bin/intel64/ifort
 BLASLIB   : -Wl,-_start-group /opt/intel/mkl/lib/intel64/libmkl_intel_ilp64.a /opt/intel/mkl/lib/intel64/libmkl_intel_thread.a /opt/intel/mkl/lib/intel64/libmkl_core.a -Wl,-_end-group
 id        : phalgunlolur

 Nodes     nprocs
 node08       1

 Using customized tuning parameters: mindgm=1; mindgv=20; mindgc=4; mindgr=1; noblas=0; minvec=7
 default implementation of scratch files=df  

 ***,name
 memory,2000,m;
 geometry={angstrom;
 N       1.3490484161    -0.5314844833    -0.1781687194
 H       2.3214880793    -0.3011380410    -0.3179857560
 H       1.2707256173    -1.2643405250     0.5173714145
 N       0.6654382198     0.6506499550     0.2125830005
 H       0.6329406300     0.7312692022     1.2214206909
 N      -0.6654229177     0.6506478699    -0.2125902295
 H      -0.6329210946     0.7312494526    -1.2214263332
 N      -1.3490555730    -0.5314742478     0.1781722706
 H      -2.3214790432    -0.3010816245     0.3180235061
 H      -1.2708112050    -1.2643321203    -0.5173777782
 }
 basis=cc-pVTZ-f12
 int;
 {hf;wf,spin=0,charge=0;}
 ccsd(t)-F12a;

 Variables initialized (889), CPU time= 0.01 sec
 Commands  initialized (702), CPU time= 0.01 sec, 572 directives.
 Default parameters read. Elapsed time= 0.07 sec

 Checking input...
 Passed
1


                                         ***  PROGRAM SYSTEM MOLPRO  ***
                                       Copyright, TTI GmbH Stuttgart, 2015
                                    Version 2015.1 linked Aug 10 2018 15:00:15


 **********************************************************************************************************************************
 LABEL *   name                                                                          
  64 bit serial version                                                                  DATE: 02-Jan-19          TIME: 19:14:00  
 **********************************************************************************************************************************

 SHA1:             5e3d8ac6839c721e2824de82269b4736200146bd
 **********************************************************************************************************************************

Geometry recognized as XYZ


 Variable memory set to 2000000000 words,  buffer space   230000 words

 SETTING BASIS          =    CC-PVTZ-F12


 Using spherical harmonics

 Library entry N      S cc-pVTZ-F12          selected for orbital group  1
 Library entry N      P cc-pVTZ-F12          selected for orbital group  1
 Library entry N      D cc-pVTZ-F12          selected for orbital group  1
 Library entry N      F cc-pVTZ-F12          selected for orbital group  1
 Library entry H      S cc-pVTZ-F12          selected for orbital group  2
 Library entry H      P cc-pVTZ-F12          selected for orbital group  2
 Library entry H      D cc-pVTZ-F12          selected for orbital group  2


 PROGRAM * SEWARD (Integral evaluation for generally contracted gaussian basis sets)     Author: Roland Lindh, 1990

 Geometry written to block  1 of record 700


 Point group  C1  



 ATOMIC COORDINATES

 NR  ATOM    CHARGE       X              Y              Z

   1  N       7.00    2.549332035   -1.004360113   -0.336690084
   2  H       1.00    4.386976671   -0.569068423   -0.600905990
   3  H       1.00    2.401323396   -2.389257320    0.977690278
   4  N       7.00    1.257495988    1.229550218    0.401723650
   5  H       1.00    1.196084444    1.381898515    2.308150589
   6  N       7.00   -1.257467071    1.229546278   -0.401737311
   7  H       1.00   -1.196047527    1.381861194   -2.308161251
   8  N       7.00   -2.549345560   -1.004340771    0.336696794
   9  H       1.00   -4.386959596   -0.568961811    0.600977328
  10  H       1.00   -2.401485133   -2.389241438   -0.977702304

 Bond lengths in Bohr (Angstrom)

 1-2  1.906889276  1-3  1.915056805  1-4  2.684110761  4-5  1.913490281  4-6  2.640187248
     ( 1.009082348)     ( 1.013404419)     ( 1.420370247)     ( 1.012575450)     ( 1.397126924)

  6- 7  1.913484893   6- 8  2.684117416   8- 9  1.906888666   8-10  1.915060718
       ( 1.012572599)       ( 1.420373768)       ( 1.009082026)       ( 1.013406489)

 Bond angles

  1-4-5  110.84250698   1-4-6  112.00832182   2-1-3  109.55169603   2-1-4  108.17654222

  3-1-4  112.07713882   4-6-7  105.82027683   4-6-8  112.00920602   5-4-6  105.82051083

  6- 8- 9  108.17540291   6- 8-10  112.07847792   7- 6- 8  110.84217350   9- 8-10  109.55058497

 NUCLEAR CHARGE:                   34
 NUMBER OF PRIMITIVE AOS:         414
 NUMBER OF SYMMETRY AOS:          372
 NUMBER OF CONTRACTIONS:          320   ( 320A   )
 NUMBER OF CORE ORBITALS:           4   (   4A   )
 NUMBER OF VALENCE ORBITALS:       22   (  22A   )


 NUCLEAR REPULSION ENERGY  139.19462539


 Eigenvalues of metric

         1 0.496E-04 0.663E-04 0.922E-04 0.145E-03 0.183E-03 0.223E-03 0.224E-03 0.266E-03


 Contracted 2-electron integrals neglected if value below      1.0D-12
 AO integral compression algorithm  1   Integral accuracy      1.0D-12

     6055.264 MB (compressed) written to integral file ( 51.4%)


 NUMBER OF SORTED TWO-ELECTRON INTEGRALS: 1318950480.     BUFFER LENGTH:  32768
 NUMBER OF SEGMENTS:  42  SEGMENT LENGTH:   31998710      RECORD LENGTH: 524288

 Memory used in sort:      32.56 MW

 SORT1 READ  1472898490. AND WROTE  1263573912. INTEGRALS IN   3636 RECORDS. CPU TIME:    17.44 SEC, REAL TIME:    38.60 SEC
 SORT2 READ  1263573912. AND WROTE  1318950480. INTEGRALS IN  23099 RECORDS. CPU TIME:    16.85 SEC, REAL TIME:    22.73 SEC

 FILE SIZES:   FILE 1:  6079.1 MBYTE,  FILE 4: 15250.5 MBYTE,   TOTAL:  21329.6 MBYTE

 OPERATOR DM      FOR CENTER  0  COORDINATES:    0.000000    0.000000    0.000000


 **********************************************************************************************************************************
 DATASETS  * FILE   NREC   LENGTH (MB)   RECORD NAMES
              1      19     5527.93       500      610      700      900      950      970     1000      129      960     1100   
                                          VAR    BASINP    GEOM    SYMINP    ZMAT    AOBASIS   BASIS     P2S    ABASIS      S 
                                         1400     1410     1200     1210     1080     1600     1650     1300     1700   
                                           T        V       H0       H01     AOSYM     SMH    MOLCAS    ERIS     OPER   

 PROGRAMS   *        TOTAL       INT
 CPU TIMES  *        81.98     81.86
 REAL TIME  *       174.36 SEC
 DISK USED  *        21.33 GB      
 **********************************************************************************************************************************


 PROGRAM * RHF-SCF (CLOSED SHELL)       Authors: W. Meyer, H.-J. Werner


 NUMBER OF ELECTRONS:      17+   17-    SPACE SYMMETRY=1    SPIN SYMMETRY: Singlet 
 CONVERGENCE THRESHOLDS:    1.00E-05 (Density)    1.00E-07 (Energy)
 MAX. NUMBER OF ITERATIONS:       60
 INTERPOLATION TYPE:            DIIS
 INTERPOLATION STEPS:              2 (START)      1 (STEP)
 LEVEL SHIFTS:                  0.00 (CLOSED)  0.00 (OPEN) 



 Orbital guess generated from atomic densities. Full valence occupancy:   26

 Molecular orbital dump at record        2100.2

 Initial occupancy:  17

 ITERATION    DDIFF          GRAD             ENERGY        2-EL.EN.            DIPOLE MOMENTS         DIIS   ORB.
    1      0.000D+00      0.000D+00      -221.23004551    433.679388   -0.00003   -0.66168    0.00002    0    start
    2      0.000D+00      0.311D-02      -221.27643288    433.168658   -0.00002   -0.58394    0.00001    1    diag
    3      0.294D-02      0.928D-03      -221.28016515    433.551953   -0.00002   -0.51476    0.00001    2    diag
    4      0.785D-03      0.370D-03      -221.28088833    433.439349   -0.00002   -0.55694    0.00001    3    diag
    5      0.325D-03      0.967D-04      -221.28095197    433.440625   -0.00002   -0.54724    0.00001    4    diag
    6      0.101D-03      0.170D-04      -221.28095577    433.450333   -0.00002   -0.54940    0.00001    5    diag
    7      0.366D-04      0.529D-05      -221.28095613    433.443071   -0.00002   -0.54941    0.00001    6    diag
    8      0.121D-04      0.209D-05      -221.28095618    433.446205   -0.00002   -0.54960    0.00001    7    diag
    9      0.404D-05      0.645D-06      -221.28095618    433.445266   -0.00002   -0.54962    0.00001    0    orth

 Final occupancy:  17

 !RHF STATE 1.1 Energy               -221.280956182954
 Nuclear energy                       139.19462539
 One-electron energy                 -577.19821448
 Two-electron energy                  216.72263291
 Virial quotient                       -1.00105577
 !RHF STATE 1.1 Dipole moment          -0.00002028    -0.54961866     0.00001223
 Dipole moment /Debye                  -0.00005154    -1.39689978     0.00003108

 Orbital energies:

         1.1          2.1          3.1          4.1          5.1          6.1          7.1          8.1          9.1         10.1
    -15.596124   -15.595573   -15.566891   -15.566887    -1.346808    -1.211887    -1.072562    -0.917505    -0.723656    -0.694763

        11.1         12.1         13.1         14.1         15.1         16.1         17.1         18.1         19.1
     -0.654415    -0.637656    -0.632248    -0.428784    -0.423876    -0.409918    -0.396920     0.066918     0.067756

 HOMO     17.1    -0.396920 =     -10.8008eV
 LUMO     18.1     0.066918 =       1.8209eV
 LUMO-HOMO         0.463838 =      12.6217eV


 **********************************************************************************************************************************
 DATASETS  * FILE   NREC   LENGTH (MB)   RECORD NAMES
              1      19     5527.93       500      610      700      900      950      970     1000      129      960     1100   
                                          VAR    BASINP    GEOM    SYMINP    ZMAT    AOBASIS   BASIS     P2S    ABASIS      S 
                                         1400     1410     1200     1210     1080     1600     1650     1300     1700   
                                           T        V       H0       H01     AOSYM     SMH    MOLCAS    ERIS     OPER   

              2       4        5.00       700     1000      520     2100   
                                         GEOM     BASIS   MCVARS     RHF  

 PROGRAMS   *        TOTAL        HF       INT
 CPU TIMES  *       214.71    132.73     81.86
 REAL TIME  *       355.08 SEC
 DISK USED  *        21.33 GB      
 **********************************************************************************************************************************


 PROGRAM * CCSD (Closed-shell coupled cluster)     Authors: C. Hampel, H.-J. Werner, 1991, M. Deegan, P.J. Knowles, 1992

                                  CCSD-F12 implementation by  H.-J. Werner, 2007

                   Density fitting integral evaluation by F.R. Manby, 2003,2007, G. Knizia, 2010

 Basis set AUG-CC-PVTZ/JKFIT generated.  Number of basis functions:   692 
 Basis set CC-PVTZ-F12/OPTRI generated.  Number of basis functions:   546 
 Basis set AUG-CC-PVTZ/MP2FIT generated. Number of basis functions:   700 

 Convergence thresholds:  THRVAR = 1.00D-08  THRDEN = 1.00D-06

 CCSD(T)     terms to be evaluated (factor= 1.000)


 Number of core orbitals:           4 (   4 )
 Number of closed-shell orbitals:  13 (  13 )
 Number of external orbitals:     303 ( 303 )

 Molecular orbitals read from record     2100.2  Type=RHF/CANONICAL (state 1.1)

 MP2-F12 correlation treatment (H.-J. Werner, 2006)
 ==================================================

 Using MP2-F12 with ansatz 3C(FIX)

 Using projected zeroth-order Hamiltonian (+Z)

 FOCKRIB=T FOCKRIC=T FOCKRIP=T CABSP=T CABSA=T CABSK=T CABSF=T GBC=F EBC=F DMAT=T NOFIK=T NOPAO=1 SOLVE=-1  USEPAO=0
 EXCH_A= T EXCH_B= F EXCH_C= F EXCH_P= F
 
 Geminal basis:    OPTFULL  GEM_TYPE=SLATER  BETA=1.0  NGEM=6

 Optimizing Gaussian exponents for each gem_beta

 Geminal optimization for beta= 1.0000
 Weight function:   m=0, omega= 1.4646

 Augmented Hessian optimization of geminal fit. Trust ratio= 0.40000
 Convergence reached after   2 iterations. Final gradient= 8.41D-16, Step= 4.29D-06, Delta= 1.28D-09
 
 Alpha:                 0.19532     0.81920     2.85917     9.50073    35.69989   197.79328
 Coeff:                 0.27070     0.30552     0.18297     0.10986     0.06810     0.04224
 

 All pairs explicitly correlated. Number of r12-pairs:           91

 Excluding core orbitals from MO domains
 
 AO(A)-basis ORBITAL           loaded. Number of functions:     320
 RI(R)-basis CC-PVTZ-F12/OPTRI loaded. Number of functions:     546
 DF-basis AUG-CC-PVTZ/JKFIT    loaded. Number of functions:     692

 Screening thresholds:   THRAO=  1.00D-10  THRMO=  1.00D-09  THRPROD=  1.00D-09
                         THRSW=  1.00D-05  THROV=  1.00D-12  THRAOF12=   1.00D-08

 CPU time for Fock operators                      8.35 sec
 
 Construction of ABS:
 Smallest eigenvalue of S          1.14E-04  (threshold= 1.00E-08)
 Ratio eigmin/eigmax               1.28E-05  (threshold= 1.00E-09)
 Smallest eigenvalue of S kept     1.14E-04  (threshold= 1.14E-04, 0 functions deleted, 546 kept)
 
 Construction of CABS:
 Smallest eigenvalue of S          4.90E-07  (threshold= 1.00E-08)
 Ratio eigmin/eigmax               4.90E-07  (threshold= 1.00E-09)
 Smallest eigenvalue of S kept     4.90E-07  (threshold= 4.90E-07, 0 functions deleted, 546 kept)
 
 CPU time for CABS singles                        0.25 sec

 CABS-singles contribution of  -0.00270998 patched into reference energy.
 New reference energy        -221.28366616
 
 AO(A)-basis ORBITAL           loaded. Number of functions:     320
 RI(R)-basis CC-PVTZ-F12/OPTRI loaded. Number of functions:     546
 DF-basis AUG-CC-PVTZ/MP2FIT   loaded. Number of functions:     700

 Screening thresholds:   THRAO=  1.00D-10  THRMO=  1.00D-09  THRPROD=  1.00D-09
                         THRSW=  1.00D-05  THROV=  1.00D-12  THRAOF12=   1.00D-08

 CPU time for 3-index integral evaluation        18.04 sec
 CPU time for first  half transformation          1.58 sec (16307.2 MFLOP/sec)
 CPU time for second half transformation          0.11 sec ( 6300.5 MFLOP/sec)
 CPU time for sorting                             0.14 sec
 CPU time for fitting                             0.32 sec (36508.1 MFLOP/sec)
 CPU time for tilde quantities                    0.36 sec (43174.4 MFLOP/sec)
 CPU time for assembly                            5.49 sec (41253.8 MFLOP/sec)
 CPU time for tranop_f12                          7.31 sec (41257.4 MFLOP/sec)
 CPU time for f12 integrals (total)              42.07 sec, Elapsed time:     51.44 sec
 CPU time for f12 matrices (total)                2.97 sec, Elapsed time:      4.85 sec

 Diagonal F12 approximation with fixed coefficients:  TSING= 0.500,  TTRIP= 0.250 (scaled by -1/beta)

 DF-MP2-F12 energy corrections:
 ==============================
 Approx.                                    Singlet             Triplet             Total
 DF-MP2-F12/3*C(DX,FIX)                -0.069228063438     -0.007803977266     -0.077032040704
 DF-MP2-F12/3*C(FIX)                   -0.065989070338     -0.007593944296     -0.073583014634
 DF-MP2-F12/3C(FIX)                    -0.066462544179     -0.007938381221     -0.074400925400

 DF-MP2-F12 correlation energies:
 ================================
 Approx.                                    Singlet             Triplet             Ecorr            Total Energy
 DF-MP2                                -0.564873786501     -0.324096821070     -0.888970607571   -222.172636769666
 DF-MP2-F12/3*C(DX,FIX)                -0.634101849939     -0.331900798336     -0.966002648275   -222.249668810370
 DF-MP2-F12/3*C(FIX)                   -0.630862856839     -0.331690765366     -0.962553622205   -222.246219784300
 DF-MP2-F12/3C(FIX)                    -0.631336330680     -0.332035202291     -0.963371532971   -222.247037695066

 SCS-DF-MP2 energies (F_SING= 1.20000  F_TRIP= 0.62222  F_PARALLEL= 0.33333):
 ============================================================================
 SCS-DF-MP2                            -0.879508788022   -222.163174950118
 SCS-DF-MP2-F12/3*C(DX,FIX)            -0.967438272225   -222.251104434320
 SCS-DF-MP2-F12/3*C(FIX)               -0.963420793323   -222.247086955419
 SCS-DF-MP2-F12/3C(FIX)                -0.964203278242   -222.247869440337
 Symmetry transformation completed.

 Number of N-1 electron functions:              13
 Number of N-2 electron functions:              91
 Number of singly external CSFs:              3939
 Number of doubly external CSFs:           7759830
 Total number of CSFs:                     7763770

 Length of J-op  integral file:               1.08 GB
 Length of K-op  integral file:               1.28 GB
 Length of 3-ext integral record:             0.00 MB

 Memory could be reduced to 451.34 Mwords without degradation in triples

 Integral transformation finished. Total CPU:  72.06 sec, npass=  1  Memory used: 247.74 MW

 Reference energy:                   -221.28366616

 Adding F12 terms to K(Cij), methodcc=4,  factor= 1.0

 ITER.      SQ.NORM     CORR.ENERGY   TOTAL ENERGY   ENERGY CHANGE        DEN1      VAR(S)    VAR(P)  DIIS     TIME  TIME/IT
   1      1.23872402    -0.89752398  -222.18119014    -0.00841835     0.01307270  0.31D-02  0.38D-02  1  1   215.04    93.78
   2      1.25299210    -0.89808002  -222.18174619    -0.00055605    -0.01764457  0.75D-04  0.46D-03  2  2   305.12    96.12
   3      1.25840161    -0.89838460  -222.18205077    -0.00030458    -0.00333380  0.51D-04  0.31D-04  3  3   394.87    95.71
   4      1.26068520    -0.89846688  -222.18213305    -0.00008228    -0.00126912  0.58D-05  0.38D-05  4  4   484.05    95.50
   5      1.26131744    -0.89848253  -222.18214869    -0.00001565    -0.00015838  0.18D-05  0.38D-06  5  5   573.50    96.12
   6      1.26154930    -0.89847406  -222.18214022     0.00000847    -0.00002031  0.23D-06  0.61D-07  6  6   662.67    95.48
   7      1.26162580    -0.89847043  -222.18213659     0.00000363    -0.00000989  0.22D-07  0.89D-08  6  1   751.94    95.61
   8      1.26164188    -0.89847050  -222.18213667    -0.00000008    -0.00000024  0.37D-08  0.13D-08  6  3   842.43    95.65
   9      1.26164958    -0.89847019  -222.18213636     0.00000031    -0.00000163  0.49D-09  0.18D-09  6  2   931.54    95.32

 Norm of t1 vector:      0.07750381      S-energy:     0.00000001      T1 diagnostic:  0.01074784
                                                                       D1 diagnostic:  0.02651048


 Total CPU time for triples:   2144.98 sec


 RESULTS
 =======

  Reference energy                   -221.280956182952
  F12 singles correction               -0.002709979144

 F12 singles corrections added to reference energy

  New reference energy               -221.283666162095

  F12a singlet correction              -0.065446453167
  F12a triplet correction              -0.007588360633
  F12a total correction                -0.073034813801

 F12a corrections for ansatz F12/3C(FIX) added to CCSD energy
 
  CCSD-F12a singlet pair energy        -0.673311737212
  CCSD-F12a triplet pair energy        -0.298193276026
  CCSD-F12a correlation energy         -0.971505007094

  Triples (T) contribution             -0.037881976808
  Total correlation energy             -1.009386983902

  CCSD-F12a total energy             -222.255171169189
  CCSD[T]-F12a energy                -222.294073492707
  CCSD-T-F12a energy                 -222.292621039899
 !CCSD(T)-F12a total energy          -222.293053145997

 Timing summary (sec):

 STEP                 CPU(USER)    SYS     CPU(TOT)    WALL
 Transformation         72.94      4.34     77.28     77.28
 CCSD iterations       804.06     22.50    826.56    859.92
 Triples              2144.98     57.65   2202.63   2202.64
 MP2-F12                54.60      6.11     60.71     86.83

 Program statistics:

 Available memory in ccsd:              1999998769
 Min. memory needed in ccsd:              19614516
 Max. memory used in ccsd:                26641874
 Max. memory used in cckext:              19531381 ( 9 integral passes)



 **********************************************************************************************************************************
 DATASETS  * FILE   NREC   LENGTH (MB)   RECORD NAMES
              1      20     7092.83       500      610      700      900      950      970     1000      129      960     1100   
                                          VAR    BASINP    GEOM    SYMINP    ZMAT    AOBASIS   BASIS     P2S    ABASIS      S 
                                         1400     1410     1200     1210     1080     1600     1650     1300     1700     1380   
                                           T        V       H0       H01     AOSYM     SMH    MOLCAS    ERIS     OPER     JKOP   

              2       6        7.06       700     1000      520     2100     7360     7350   
                                         GEOM     BASIS   MCVARS     RHF    F12ABS    EF12   

 PROGRAMS   *        TOTAL   CCSD(T)        HF       INT
 CPU TIMES  *      3291.35   3076.63    132.73     81.86
 REAL TIME  *      3583.99 SEC
 DISK USED  *        21.33 GB      
 **********************************************************************************************************************************

 CCSD(T)-F12A/cc-pVTZ-F12 energy=   -222.293053145997

    CCSD(T)-F12A        HF-SCF  
   -222.29305315   -221.28095618
 **********************************************************************************************************************************
 Molpro calculation terminated
 Variable memory released
