
 Working directory              : /gtmp/molpro.T66wyGqmSD/
 Global scratch directory       : /gtmp/molpro.T66wyGqmSD/
 Wavefunction directory         : /home/alon/wfu/
 Main file repository           : /gtmp/molpro.T66wyGqmSD/

 id        : dana

 Nodes     nprocs
 n136        16
 GA implementation: MPI file
 GA implementation (serial work in mppx): MPI file

 Using customized tuning parameters: mindgm=1; mindgv=20; mindgc=4; mindgr=1; noblas=0; minvec=7
 default implementation of scratch files=sf  


 Variables initialized (1025), CPU time= 0.01 sec
 ***,HO2
 memory,Total=15625,m;
 
 geometry={angstrom;
 O      -0.16513900    0.44815400    0.00000000
 O       1.00112100   -0.18975400   -0.00000000
 H      -0.83598100   -0.25840000    0.00000000}
 
 gprint,orbitals;
 
 basis=aug-cc-pvtz
 
 
 
 int;
 
 {hf;
  maxit,999;
  wf,spin=1,charge=0;
 }
 
 
 {mp2;
  wf,spin=1,charge=0;
 }
 
 {casscf;
  maxit,999;
  wf,spin=1,charge=0;
  occ,8,2;
  closed,5,1;
  state,1;
 }
 
 {rs2c;
  maxit,999;
  wf,spin=1,charge=0;
 }
 
 
 
 
 Commands initialized (840), CPU time= 0.00 sec, 684 directives.
 Default parameters read. Elapsed time= 0.32 sec

 Checking input...
 Passed
1


                                         ***  PROGRAM SYSTEM MOLPRO  ***
                                       Copyright, TTI GmbH Stuttgart, 2015
                                    Version 2022.3 linked Wed Nov 30 13:40:34 2022


 **********************************************************************************************************************************
 LABEL *   HO2                                                                           
  64 bit mpp version                                                                     DATE: 08-Sep-24          TIME: 09:43:40  
 **********************************************************************************************************************************

 SHA1:             e31ec9a5ea85254ab76f59d122cbdd51c71cf98b
 **********************************************************************************************************************************

 Memory per process:       732 MW
 Total memory per node:  15625 MW
 Total GA space:          3906 MW

 GA preallocation enabled
 GA check enabled

 Variable memory set to 732.4 MW


 Geometry recognized as XYZ


 SETTING BASIS          =    AUG-CC-PVTZ


 Using spherical harmonics

 Library entry O      S aug-cc-pVTZ          selected for orbital group  1
 Library entry O      P aug-cc-pVTZ          selected for orbital group  1
 Library entry O      D aug-cc-pVTZ          selected for orbital group  1
 Library entry O      F aug-cc-pVTZ          selected for orbital group  1
 Library entry H      S aug-cc-pVTZ          selected for orbital group  2
 Library entry H      P aug-cc-pVTZ          selected for orbital group  2
 Library entry H      D aug-cc-pVTZ          selected for orbital group  2


 PROGRAM * SEWARD (Integral evaluation for generally contracted gaussian basis sets)     Author: Roland Lindh, 1990

 Geometry written to block  1 of record 700


 Point group  Cs  



 ATOMIC COORDINATES

 NR  ATOM    CHARGE       X              Y              Z

   1  O       8.00   -0.312067482    0.846888322    0.000000000
   2  O       8.00    1.891844508   -0.358583091    0.000000000
   3  H       1.00   -1.579775135   -0.488305231    0.000000000

 Bond lengths in Bohr (Angstrom)

 1-2  2.512048842  1-3  1.841147608
     ( 1.329319000)     ( 0.974293356)

 Bond angles

  2-1-3  104.83752478

 NUCLEAR CHARGE:                   17
 NUMBER OF PRIMITIVE AOS:         161
 NUMBER OF SYMMETRY AOS:          141
 NUMBER OF CONTRACTIONS:          115   (   76A'  +   39A"  )
 NUMBER OF INNER CORE ORBITALS:     0   (    0A'  +    0A"  )
 NUMBER OF OUTER CORE ORBITALS:     2   (    2A'  +    0A"  )
 NUMBER OF VALENCE ORBITALS:        9   (    7A'  +    2A"  )


 NUCLEAR REPULSION ENERGY   32.12512051


 Allocated 245 MW GA space on the current processor, total: 3907 MW. Time:     0.00 sec

 Eigenvalues of metric

         1 0.240E-03 0.415E-03 0.122E-02 0.267E-02 0.374E-02 0.493E-02 0.520E-02 0.693E-02
         2 0.587E-02 0.114E-01 0.380E-01 0.419E-01 0.523E-01 0.813E-01 0.118E+00 0.128E+00


 Contracted 2-electron integrals neglected if value below      1.0D-11
 AO integral compression algorithm  1   Integral accuracy      1.0D-11

     65.798 MB (compressed) written to integral file ( 55.4%)

     Node minimum: 3.408 MB, node maximum: 5.243 MB


 NUMBER OF SORTED TWO-ELECTRON INTEGRALS:     706608.     BUFFER LENGTH:  32768
 NUMBER OF SEGMENTS:   1  SEGMENT LENGTH:     706608      RECORD LENGTH: 524288

 Memory used in sort:       1.26 MW

 SORT1 READ    14525730. AND WROTE      675498. INTEGRALS IN      2 RECORDS. CPU TIME:     0.14 SEC, REAL TIME:     0.15 SEC
 SORT2 READ    10930363. AND WROTE    11433631. INTEGRALS IN    272 RECORDS. CPU TIME:     0.01 SEC, REAL TIME:     0.01 SEC

 Node minimum:      706378.  Node maximum:      718170. integrals

 OPERATOR DM      FOR CENTER  0  COORDINATES:    0.000000    0.000000    0.000000


 **********************************************************************************************************************************
 DATASETS  * FILE   NREC   LENGTH (MB)   RECORD NAMES
              1      18       28.86       500      610      700      900      950      970     1000      129      960     1100   
                                          VAR    BASINP    GEOM    SYMINP    ZMAT    AOBASIS   BASIS     P2S    ABASIS      S 
                                         1400     1410     1200     1210     1080     1600     1650     1700   
                                           T        V       H0       H01     AOSYM     SMH    MOLCAS    OPER   

 PROGRAMS   *        TOTAL       INT
 CPU TIMES  *         0.60      0.47
 REAL TIME  *         1.03 SEC
 DISK USED  *        29.18 MB (local),      644.53 MB (total)
 GA USED    *         0.00 MB       (max)       0.00 MB       (current)
 **********************************************************************************************************************************


 Program * Restricted Hartree-Fock

 Orbital guess generated from atomic densities. Full valence occupancy:    9   2

 Initial alpha occupancy:   7   2
 Initial beta  occupancy:   7   1

 NELEC=   17   SYM=2   MS2= 1   THRE=1.0D-08   THRD=3.2D-06   THRG=3.2D-06  HFMA2=F  DIIS_START=2   DIIS_MAX=10   DIIS_INCORE=F

 Level shifts:    0.00 (CLOSED)    0.00 (OPEN)    0.30 (GAP_MIN)

 ITER           ETOT              DE          GRAD        DDIFF     DIIS  NEXP   TIME(IT)  TIME(TOT)  DIAG
   1     -150.17011817    -150.17011817     0.00D+00     0.88D-01     0     0       0.00      0.00    start
   2     -150.20465019      -0.03453202     0.90D-02     0.92D-02     1     0       0.01      0.01    diag2
   3     -150.22033330      -0.01568311     0.64D-02     0.47D-02     2     0       0.00      0.01    diag2
   4     -150.22490807      -0.00457477     0.13D-02     0.14D-02     3     0       0.01      0.02    diag2
   5     -150.22856663      -0.00365856     0.12D-02     0.11D-02     4     0       0.01      0.03    diag2
   6     -150.23199458      -0.00342794     0.80D-03     0.16D-02     5     0       0.00      0.03    diag2
   7     -150.23257275      -0.00057817     0.35D-03     0.88D-03     6     0       0.00      0.03    diag2
   8     -150.23258496      -0.00001221     0.98D-04     0.16D-03     7     0       0.01      0.04    fixocc
   9     -150.23259040      -0.00000544     0.69D-04     0.13D-03     8     0       0.00      0.04    diag2
  10     -150.23259103      -0.00000063     0.28D-04     0.43D-04     9     0       0.01      0.05    diag2/orth
  11     -150.23259126      -0.00000022     0.13D-04     0.19D-04     9     0       0.00      0.05    diag2
  12     -150.23259126      -0.00000000     0.95D-06     0.19D-05     9     0       0.01      0.06    diag2
  13     -150.23259126      -0.00000000     0.51D-06     0.64D-06     0     0       0.00      0.06    diag

 Final alpha occupancy:   7   2
 Final beta  occupancy:   7   1

 !RHF STATE 1.2 Energy               -150.232591258293
  RHF One-electron energy            -270.928629502666
  RHF Two-electron energy              88.570917737861
  RHF Kinetic energy                  150.046375775003
  RHF Nuclear energy                   32.125120506513
  RHF Virial quotient                  -1.001241052857

 !RHF STATE 1.2 Dipole moment          -0.62605931    -0.43865566     0.00000000
 Dipole moment /Debye                  -1.59128405    -1.11495147     0.00000000

 ELECTRON ORBITALS
 =================

  Orbital  Occupation    Energy    Cen Mu Typ  Coefficients
    1.1     2.00000   -20.67277     2  1  s    0.99737
    2.1     2.00000   -20.66835     1  1  s    0.99740
    3.1     2.00000    -1.54217     1  2  s    0.68214    2  2  s    0.56715
    4.1     2.00000    -1.15777     1  2  s   -0.57468    1  1  px   0.25089    2  2  s    0.74537    3  1  s   -0.36249
    5.1     2.00000    -0.76227     1  1  px   0.46397    1  1  py   0.46612    2  1  py   0.47384    3  1  s   -0.53346
    6.1     2.00000    -0.66270     1  1  px  -0.39599    1  1  py   0.48511    2  1  px   0.64562
    7.1     2.00000    -0.50672     1  1  py  -0.47553    2  1  px   0.32427    2  1  py   0.79533    3  1  s    0.36930
    1.2     2.00000    -0.62448     1  1  pz   0.88505
    2.2     1.00000    -0.59233     1  1  pz  -0.36862    2  1  pz   0.99301


 HOMO      7.1    -0.506721 =     -13.7886eV
 LUMO      8.1     0.030590 =       0.8324eV
 LUMO-HOMO         0.537311 =      14.6210eV

 Orbitals saved in record  2100.2


 **********************************************************************************************************************************
 DATASETS  * FILE   NREC   LENGTH (MB)   RECORD NAMES
              1      18       28.87       500      610      700      900      950      970     1000      129      960     1100   
                                          VAR    BASINP    GEOM    SYMINP    ZMAT    AOBASIS   BASIS     P2S    ABASIS      S 
                                         1400     1410     1200     1210     1080     1600     1650     1700   
                                           T        V       H0       H01     AOSYM     SMH    MOLCAS    OPER   

              2       4        0.62       700     1000      520     2100   
                                         GEOM     BASIS   MCVARS     RHF  

 PROGRAMS   *        TOTAL    HF-SCF       INT
 CPU TIMES  *         0.74      0.14      0.47
 REAL TIME  *         5.11 SEC
 DISK USED  *        30.56 MB (local),      666.61 MB (total)
 GA USED    *         0.00 MB       (max)       0.00 MB       (current)
 **********************************************************************************************************************************


 PROGRAM * RMP2 (Restricted open-shell)     Authors: H.-J. Werner, 2001


 Convergence thresholds:  THRVAR = 1.00D-08  THRDEN = 1.00D-06

 Number of core orbitals:           2 (   2   0 )
 Number of closed-shell orbitals:   6 (   5   1 )
 Number of active  orbitals:        1 (   0   1 )
 Number of external orbitals:     106 (  69  37 )

 Reading RHF information from record   2100.2

                               TOTAL       A-A         B-B         A-B
 Pair energies:            -0.45576889 -0.06238867 -0.05285220 -0.34052802
 Singles energies:         -0.00441624 -0.00220300 -0.00221324

 !Reference STATE 1.2 energy         -150.232591258293
 !RMP2 STATE 1.2 correl. energy        -0.460185122779
 !RMP2 STATE 1.2 total energy        -150.692776381072

 !SCS-RMP2 STATE 1.2 correl. energy    -0.447047243835
 !SCS-RMP2 STATE 1.2 total energy    -150.679638502128


 **********************************************************************************************************************************
 DATASETS  * FILE   NREC   LENGTH (MB)   RECORD NAMES
              1      18       28.87       500      610      700      900      950      970     1000      129      960     1100   
                                          VAR    BASINP    GEOM    SYMINP    ZMAT    AOBASIS   BASIS     P2S    ABASIS      S 
                                         1400     1410     1200     1210     1080     1600     1650     1700   
                                           T        V       H0       H01     AOSYM     SMH    MOLCAS    OPER   

              2       4        0.62       700     1000      520     2100   
                                         GEOM     BASIS   MCVARS     RHF  

 PROGRAMS   *        TOTAL       MP2    HF-SCF       INT
 CPU TIMES  *         0.81      0.06      0.14      0.47
 REAL TIME  *         5.19 SEC
 DISK USED  *        30.56 MB (local),      666.61 MB (total)
 SF USED    *         8.12 MB
 GA USED    *         0.00 MB       (max)       0.00 MB       (current)
 **********************************************************************************************************************************

 PROGRAM * MULTI (Direct Multiconfiguration SCF)       Authors: P.J. Knowles, H.-J. Werner (1984)
                                                                D.A. Kreplin, P.J. Knowles, H.-J. Werner (2019)

 Number of closed-shell orbitals:   6 (    5    1)
 Number of active  orbitals:        4 (    3    1)
 Number of external orbitals:     105 (   68   37)

 State symmetry 1

 Number of active electrons:   5    Spin symmetry=Doublet   Space symmetry=2
 Number of states:             1
 Number of CSFs:               9   (12 determinants, 24 intermediate states)

 Molecular orbitals read from record     2100.2  Type=RHF/CANONICAL  

 Wavefunction dump at record             2140.2

 Convergence thresholds  0.10E-04 (gradient)  0.10E-05 (energy)
 
 Number of orbital rotations:  634  ( 16 closed/active, 377 closed/virtual, 0 active/active, 241 active/virtual )
 Total number of variables:    646
 
 Second-order MCSCF: L-BFGS accelerated
 
 ITER  MIC  NCI  NEG     ENERGY(VAR)    ENERGY(PROJ) ENERGY CHANGE       GRAD(0)  GRAD(ORB)   GRAD(CI)      STEP      TIME
   1   55   20   28   -150.23260182    -150.25752980   -0.02492798    0.00026496 0.00000027 0.00000000  0.94E+00      2.24
   2   26   13    0   -150.26507911    -150.26990559   -0.00482648    0.06074391 0.00034661 0.00000000  0.23E+00      2.53
   3   31   12    0   -150.27012384    -150.27015191   -0.00002807    0.00393155 0.00000450 0.00000000  0.19E-01      2.83
   4   23    9    0   -150.27015263    -150.27015272   -0.00000009    0.00025798 0.00000025 0.00000000  0.98E-03      3.07

 CONVERGENCE REACHED!  Final gradient:    0.00000052 ( 0.52E-06)
                       Final energy:   -150.27015272
 
 First order charge density matrix for state 1.2 saved on record 2140.2 (density set 1)
 
 Results for state 1.2
 =====================
 !MCSCF STATE 1.2 Energy                      -150.270152720089
 Nuclear energy                                 32.12512051
 Kinetic energy                                150.20743631
 One electron energy                          -270.97568640
 Two electron energy                            88.58041317
 Virial ratio                                    2.00041753
 
 !MCSCF STATE 1.2 Dipole moment                 -0.62063164    -0.43831921     0.00000000
 Dipole moment /Debye                           -1.57748829    -1.11409631     0.00000000
 
 No non-zero expectation values
 
  NATURAL ORBITALS 
  ================

  Orbital  Occupation    Energy    Cen Mu Typ  Coefficients
    1.1     2.00000   -20.65876     1  1  s    0.91254    2  1  s    0.40637
    2.1     2.00000   -20.64159     1  1  s   -0.40589    2  1  s    0.91190
    3.1     2.00000    -1.40648     1  2  s    0.81184    2  2  s    0.37367    3  1  s    0.37720
    4.1     2.00000    -0.75836     1  1  px   0.31043    1  1  py   0.64168    2  1  py   0.35375    3  1  s   -0.54763
    5.1     2.00000    -0.52211     1  1  py   0.34480    2  1  px  -0.43218    2  1  py  -0.78756    3  1  s   -0.38960
    6.1     1.99791    -1.14889     1  2  s   -0.42578    2  2  s    0.89357
    7.1     1.95773    -0.78780     1  1  px  -0.54740    1  1  py   0.37155    2  1  px   0.55821    2  1  py  -0.33506
    8.1     0.04436     0.48087     1  2  s   -0.40162    1  4  s   -0.35196    1  1  px  -0.82535    1  1  py   0.49487
                                    2  2  s    0.35945    2  4  s    0.38540    2  5  s    0.26437    2  1  px  -0.86572
                                    2  1  py   0.48426
    1.2     2.00000    -0.62077     1  1  pz   0.88536
    2.2     1.00000    -0.21314     1  1  pz  -0.36073    2  1  pz   0.99357
 
 Natural orbital dump at molpro section 2140.2 (Orbital set 2)


 **********************************************************************************************************************************
 DATASETS  * FILE   NREC   LENGTH (MB)   RECORD NAMES
              1      19       33.34       500      610      700      900      950      970     1000      129      960     1100   
                                          VAR    BASINP    GEOM    SYMINP    ZMAT    AOBASIS   BASIS     P2S    ABASIS      S 
                                         1400     1410     1200     1210     1080     1600     1650     1700     1380   
                                           T        V       H0       H01     AOSYM     SMH    MOLCAS    OPER     JKOP   

              2       5        0.97       700     1000      520     2100     2140   
                                         GEOM     BASIS   MCVARS     RHF     MCSCF   

 PROGRAMS   *        TOTAL    CASSCF       MP2    HF-SCF       INT
 CPU TIMES  *         2.08      1.27      0.06      0.14      0.47
 REAL TIME  *         9.10 SEC
 DISK USED  *        34.37 MB (local),      727.57 MB (total)
 SF USED    *        12.99 MB
 GA USED    *         0.00 MB       (max)       0.00 MB       (current)
 **********************************************************************************************************************************


 PROGRAM * RS2C (Multireference RS Perturbation Theory)     Authors: H.-J. Werner (1993), P. Celani (1998)


 Convergence thresholds:  THRVAR = 1.00D-06  THRDEN = 1.00D-06

 Number of optimized states: 1  Roots:    1
 Number of reference states: 1  Roots:    1

 Using rs2c

 Reference symmetry:                   2   Doublet 
 Number of electrons:                 17
 Maximum number of shells:             4
 Maximum number of spin couplings:    14

 Reference space:        6 conf        9 CSFs
 N elec internal:       16 conf       20 CSFs
 N-1 el internal:       19 conf       35 CSFs
 N-2 el internal:       13 conf       38 CSFs

 Number of electrons in valence space:                     13
 Maximum number of open shell orbitals in reference space:  3
 Maximum number of open shell orbitals in internal spaces:  7


 Number of core orbitals:           2 (   2   0 )
 Number of closed-shell orbitals:   4 (   3   1 )
 Number of active  orbitals:        4 (   3   1 )
 Number of external orbitals:     105 (  68  37 )

 Molecular orbitals read from record     2140.2  Type=MCSCF/NATURAL (state 1.2)

 Integral transformation finished. Total CPU:   0.02 sec, npass=  1  Memory used:   0.36 MW

 Number of p-space configurations:   1

 Reference wavefunction optimized for reference space (refopt=1)

 State     Reference Energy 
     1      -150.27015272

 Number of blocks in overlap matrix:     4   Smallest eigenvalue:  0.28D-03
 Number of N-2 electron functions:      63
 Number of N-1 electron functions:      35

 Number of internal configurations:                    9
 Number of singly external configurations:          1822
 Number of doubly external configurations:        177615
 Total number of contracted configurations:       179446
 Total number of uncontracted configurations:     107372

 Weight factors for SA-density in H0:    1.000000

 FIMAX=  0.28D+00  FXMAX=  0.11D-08  DIAG=  F  F  NOREF=1  NOINT=0  IHPPD=2

 Nuclear energy:                      32.12512051
 Core energy:                       -130.99803678
 Zeroth-order valence energy:        -10.64492796
 Zeroth-order total energy:         -109.51784424
 First-order energy:                 -40.75230848


 Using contracted singles

 Number of contracted N-1 electron functions:        180
 Number of contracted internal configurations:         8


 Diagonal Coupling coefficients finished.               Storage:  175576 words, CPU-Time:      0.00 seconds.
 Energy denominators for pairs finished in 0 passes.    Storage:  189560 words, CPU-time:      0.00 seconds.

  ITER. STATE  ROOT     SQ.NORM     CORR.ENERGY   TOTAL ENERGY   ENERGY CHANGE       DEN1      VAR(S)    VAR(P)      TIME
    1     1     1     1.03247754     0.00000000  -150.27015272     0.00000000    -0.41711899  0.32D-01  0.63D-01     0.04
    2     1     1     1.10304126    -0.42756068  -150.69771340    -0.42756068    -0.00025015  0.45D-03  0.16D-03     0.05
    3     1     1     1.10435585    -0.42946425  -150.69961697    -0.00190357    -0.00181114  0.19D-03  0.17D-05     0.06
    4     1     1     1.10498583    -0.42995826  -150.70011098    -0.00049401     0.00003012  0.64D-05  0.57D-06     0.07
    5     1     1     1.10513054    -0.42999346  -150.70014618    -0.00003519    -0.00008892  0.17D-05  0.18D-07     0.08
    6     1     1     1.10517684    -0.42999665  -150.70014937    -0.00000319     0.00000193  0.38D-06  0.52D-08     0.09
    7     1     1     1.10519789    -0.42999869  -150.70015141    -0.00000204    -0.00000860  0.15D-06  0.10D-08     0.10
    8     1     1     1.10520600    -0.42999909  -150.70015181    -0.00000040    -0.00000018  0.62D-07  0.38D-09     0.10

 Energy contributions for state 1.2:
 ===================================

            Energy contr.      SQ.Norm of FOWF
 Space I0     0.00000000          0.00000000
 Space I1    -0.01058738          0.00712445
 Space I2    -0.00124151          0.00064953
 Space S0    -0.02885894          0.00870840
 Space S1    -0.05688864          0.01910554
 Space S2    -0.01800045          0.00649351
 Space P0    -0.04231239          0.00657076
 Space P1    -0.15768459          0.03130729
 Space P2    -0.11442520          0.02524654


 RESULTS FOR STATE 1.2
 =====================


 Reference energy                    -150.27015272
 Nuclear energy                        32.12512051
 Correlation energy                    -0.42999909
 !RSPT2 STATE 1.2 Energy             -150.700151809954
 !RS2C STATE 1.2 Dipole moment         -0.65532698    -0.41398806     0.00000000
 Dipole moment /Debye                  -1.66567504    -1.05225269     0.00000000


 **********************************************************************************************************************************
 DATASETS  * FILE   NREC   LENGTH (MB)   RECORD NAMES
              1      19       33.34       500      610      700      900      950      970     1000      129      960     1100   
                                          VAR    BASINP    GEOM    SYMINP    ZMAT    AOBASIS   BASIS     P2S    ABASIS      S 
                                         1400     1410     1200     1210     1080     1600     1650     1700     1380   
                                           T        V       H0       H01     AOSYM     SMH    MOLCAS    OPER     JKOP   

              2       5        0.97       700     1000      520     2100     2140   
                                         GEOM     BASIS   MCVARS     RHF     MCSCF   

 PROGRAMS   *        TOTAL      RS2C    CASSCF       MP2    HF-SCF       INT
 CPU TIMES  *         2.22      0.14      1.27      0.06      0.14      0.47
 REAL TIME  *         9.81 SEC
 DISK USED  *        34.37 MB (local),      727.57 MB (total)
 SF USED    *        18.18 MB
 GA USED    *         0.00 MB       (max)       0.00 MB       (current)
 **********************************************************************************************************************************

 RS2C/aug-cc-pVTZ energy=   -150.700151809954

            RS2C          CASSCF             MP2          HF-SCF
   -150.70015181   -150.27015272   -150.69277638   -150.23259126
 **********************************************************************************************************************************
 Molpro calculation terminated
