
 Primary working directories    : /tmp
 Secondary working directories  : /tmp
 Wavefunction directory         : /home/alongd/wfu/
 Main file repository           : /tmp/

 SHA1      : bcc541aafb6436e7cbfd6a9eace0379a6d456b47
 NAME      : 2015.1.11
 ARCHNAME  : linux/x86_64
 FC        : /opt/intel/composer_xe_2015.1.133/bin/intel64/ifort
 BLASLIB   : -Wl,-_start-group /opt/intel/mkl/lib/intel64/libmkl_intel_ilp64.a /opt/intel/mkl/lib/intel64/libmkl_intel_thread.a /opt/intel/mkl/lib/intel64/libmkl_core.a -Wl,-_end-group
 id        : phalgunlolur

 Nodes     nprocs
 node05       1

 Using customized tuning parameters: mindgm=1; mindgv=20; mindgc=4; mindgr=1; noblas=0; minvec=7
 default implementation of scratch files=df  

 ***,name
 memory,4000,m;
 
 geometry={angstrom;
           C      -2.2060336200    -0.5697588539     0.2348498052
           H      -2.8973420680    -1.0359802326    -0.4702570028
           H      -1.6343951667    -1.3298875529     0.7772620981
           H      -2.7440915743     0.0713354855     0.9386439510
           O      -1.3232061129     0.2171069189    -0.5780913287
           O      -0.4656802751     0.9045286528     0.2454449130
           S       2.0382065248    -0.1598528711     0.0382259337
           H       1.5615299577    -1.2983523640    -0.5114201459
           H       0.6502872795     0.5959991514    -0.0937713449
 }
 
 gprint,orbitals;
 
 basis=aug-cc-pV(T+d)Z
 
 {hf;
 maxit,1000;
 wf,spin=1,charge=0}
 
 {multi;
 noextra,failsafe,config,csf;
 wf,spin=1,charge=0;
 natorb,print,ci;}
 
 mrci;
 
 optg,root=2,method=qsd,readhess,savexyz='geometry.xyz'
 
 E_mrci=energy;
 E_mrci_Davidson=energd;
 
 table,E_mrci,E_mrci_Davidson;
 

 Variables initialized (889), CPU time= 0.00 sec
 Commands  initialized (702), CPU time= 0.01 sec, 572 directives.
 Default parameters read. Elapsed time= 0.08 sec

 Checking input...
 Passed
1


                                         ***  PROGRAM SYSTEM MOLPRO  ***
                                       Copyright, TTI GmbH Stuttgart, 2015
                                    Version 2015.1 linked Sep  5 2016 17:26:57


 **********************************************************************************************************************************
 LABEL *   name                                                                          
  64 bit serial version                                                                  DATE: 15-Aug-18          TIME: 09:36:00  
 **********************************************************************************************************************************

 SHA1:             bcc541aafb6436e7cbfd6a9eace0379a6d456b47
 **********************************************************************************************************************************

Geometry recognized as XYZ



 Variable memory set to 4000000000 words,  buffer space   230000 words

 SETTING BASIS          =    AUG-CC-PV(T+D)Z


 Recomputing integrals since basis changed


 Using spherical harmonics

 Library entry C      S aug-cc-pvtz          selected for orbital group  1
 Library entry C      P aug-cc-pvtz          selected for orbital group  1
 Library entry C      D aug-cc-pvtz          selected for orbital group  1
 Library entry C      F aug-cc-pvtz          selected for orbital group  1
 Library entry H      S aug-cc-pvtz          selected for orbital group  2
 Library entry H      P aug-cc-pvtz          selected for orbital group  2
 Library entry H      D aug-cc-pvtz          selected for orbital group  2
 Library entry O      S aug-cc-pvtz          selected for orbital group  3
 Library entry O      P aug-cc-pvtz          selected for orbital group  3
 Library entry O      D aug-cc-pvtz          selected for orbital group  3
 Library entry O      F aug-cc-pvtz          selected for orbital group  3
 Library entry S      S aug-cc-pv(t+d)z      selected for orbital group  4
 Library entry S      P aug-cc-pv(t+d)z      selected for orbital group  4
 Library entry S      D aug-cc-pv(t+d)z      selected for orbital group  4
 Library entry S      F aug-cc-pv(t+d)z      selected for orbital group  4


 PROGRAM * SEWARD (Integral evaluation for generally contracted gaussian basis sets)     Author: Roland Lindh, 1990

 Geometry written to block  1 of record 700


 Point group  C1  



 ATOMIC COORDINATES

 NR  ATOM    CHARGE       X              Y              Z

   1  C       6.00   -4.168799363   -1.076688191    0.443801812
   2  H       1.00   -5.475182998   -1.957718910   -0.888656943
   3  H       1.00   -3.088559244   -2.513123251    1.468812492
   4  H       1.00   -5.185581536    0.134804531    1.773779996
   5  O       8.00   -2.500497160    0.410272616   -1.092434286
   6  O       8.00   -0.880008182    1.709311426    0.463823664
   7  S      16.00    3.851652117   -0.302078147    0.072236546
   8  H       1.00    2.950863955   -2.453530381   -0.966444010
   9  H       1.00    1.228864861    1.126275167   -0.177202160

 Bond lengths in Bohr (Angstrom)

 1-2  2.063564795  1-3  2.069036320  1-4  2.066495238  1-5  2.711882379  5-6  2.595269767
     ( 1.091991463)     ( 1.094886869)     ( 1.093542187)     ( 1.435066353)     ( 1.373357617)

 6-9  2.279954143  7-8  2.553237812  7-9  2.996902709
     ( 1.206499774)     ( 1.351115264)     ( 1.585892617)

 Bond angles

  1-5-6  108.59526474   2-1-3  110.73237021   2-1-4  110.75540141   2-1-5  104.93790270

  3-1-4  110.18546709   3-1-5  109.88425576   4-1-5  110.23198100   5-6-9  106.31700387

  6-9-7  155.22695855   8-7-9   93.38177448

 NUCLEAR CHARGE:                   43
 NUMBER OF PRIMITIVE AOS:         426
 NUMBER OF SYMMETRY AOS:          379
 NUMBER OF CONTRACTIONS:          308   ( 308A   )
 NUMBER OF CORE ORBITALS:           8   (   8A   )
 NUMBER OF VALENCE ORBITALS:       21   (  21A   )


 NUCLEAR REPULSION ENERGY  158.65770562


 Eigenvalues of metric

         1 0.530E-04 0.655E-04 0.790E-04 0.130E-03 0.143E-03 0.234E-03 0.274E-03 0.332E-03


 Contracted 2-electron integrals neglected if value below      1.0D-11
 AO integral compression algorithm  1   Integral accuracy      1.0D-11

     4465.885 MB (compressed) written to integral file ( 43.9%)


 NUMBER OF SORTED TWO-ELECTRON INTEGRALS: 1132237491.     BUFFER LENGTH:  32768
 NUMBER OF SEGMENTS:  36  SEGMENT LENGTH:   31998710      RECORD LENGTH: 524288

 Memory used in sort:      32.56 MW

 SORT1 READ  1271372144. AND WROTE  1036450544. INTEGRALS IN   2988 RECORDS. CPU TIME:    27.45 SEC, REAL TIME:   161.24 SEC
 SORT2 READ  1036450544. AND WROTE  1132237491. INTEGRALS IN  17036 RECORDS. CPU TIME:    23.18 SEC, REAL TIME:   237.31 SEC

 FILE SIZES:   FILE 1:  4488.6 MBYTE,  FILE 4: 12532.6 MBYTE,   TOTAL:  17021.2 MBYTE

 OPERATOR DM      FOR CENTER  0  COORDINATES:    0.000000    0.000000    0.000000


 **********************************************************************************************************************************
 DATASETS  * FILE   NREC   LENGTH (MB)   RECORD NAMES
              1      19     4043.00       500      610      700      900      950      970     1000      129      960     1100   
                                          VAR    BASINP    GEOM    SYMINP    ZMAT    AOBASIS   BASIS     P2S    ABASIS      S 
                                         1400     1410     1200     1210     1080     1600     1650     1300     1700   
                                           T        V       H0       H01     AOSYM     SMH    MOLCAS    ERIS     OPER   

 PROGRAMS   *        TOTAL       INT
 CPU TIMES  *       102.70    102.59
 REAL TIME  *       665.37 SEC
 DISK USED  *        17.02 GB      
 **********************************************************************************************************************************


 PROGRAM * RHF-SCF (OPEN SHELL)       Authors: W. Meyer, H.-J. Werner


 NUMBER OF ELECTRONS:      22+   21-    SPACE SYMMETRY=1    SPIN SYMMETRY: Doublet 
 CONVERGENCE THRESHOLDS:    1.00E-06 (Density)    1.00E-07 (Energy)
 MAX. NUMBER OF ITERATIONS:     1000
 INTERPOLATION TYPE:            DIIS
 INTERPOLATION STEPS:              2 (START)      1 (STEP)
 LEVEL SHIFTS:                 -0.60 (CLOSED) -0.30 (OPEN) 



 Orbital guess generated from atomic densities. Full valence occupancy:   29

 Molecular orbital dump at record        2100.2

 Initial alpha occupancy:  22
 Initial beta  occupancy:  21
 Wave function symmetry:    1

 ITERATION    DDIFF          GRAD             ENERGY        2-EL.EN.            DIPOLE MOMENTS         DIIS   ORB.
    1      0.000D+00      0.000D+00      -587.83446938    757.051341   -2.43265   -0.94554   -0.29119    0    start
    2      0.000D+00      0.316D-02      -587.89646083    759.163956   -1.59022   -0.73341    0.08839    1    diag,B
    3      0.264D-02      0.120D-02      -587.90682267    758.819649   -1.52643   -0.68018    0.05530    2    diag,B
    4      0.102D-02      0.504D-03      -587.91313341    758.900069   -1.38924   -0.62179    0.10699    3    diag,B
    5      0.692D-03      0.312D-03      -587.91634603    758.914845   -1.32187   -0.60561    0.11623    4    diag,B
    6      0.366D-03      0.203D-03      -587.91914829    758.887106   -1.27863   -0.58813    0.12912    5    diag,B
    7      0.354D-03      0.154D-03      -587.92107202    758.876068   -1.26259   -0.57776    0.13469    6    fixocc
    8      0.339D-03      0.999D-04      -587.92221148    758.865617   -1.28054   -0.56130    0.14066    7    diag,B
    9      0.324D-03      0.613D-04      -587.92259793    758.858503   -1.31899   -0.54678    0.14406    8    diag,B
   10      0.182D-03      0.448D-04      -587.92284887    758.843681   -1.36763   -0.53271    0.14756    9    orth
   11      0.148D-03      0.335D-04      -587.92303011    758.825352   -1.42813   -0.51507    0.15401    9    diag,B
   12      0.149D-03      0.242D-04      -587.92311862    758.810079   -1.47366   -0.50171    0.15807    9    diag,B
   13      0.127D-03      0.158D-04      -587.92314104    758.804051   -1.49020   -0.49585    0.15951    9    diag,B
   14      0.443D-04      0.140D-04      -587.92315811    758.800640   -1.50198   -0.49200    0.16022    9    diag,B
   15      0.329D-04      0.123D-04      -587.92318080    758.796198   -1.51319   -0.48773    0.16023    9    diag,B
   16      0.403D-04      0.113D-04      -587.92321635    758.789268   -1.53500   -0.47995    0.16067    9    diag,B
   17      0.688D-04      0.993D-05      -587.92326057    758.780060   -1.56431   -0.46961    0.16082    9    diag,B
   18      0.101D-03      0.821D-05      -587.92329912    758.769680   -1.59769   -0.45824    0.16113    9    diag,B
   19      0.117D-03      0.629D-05      -587.92332072    758.762682   -1.62021   -0.45055    0.16103    9    diag,B
   20      0.913D-04      0.441D-05      -587.92333347    758.753809   -1.64763   -0.44119    0.16136    9    orth
   21      0.102D-03      0.277D-05      -587.92333549    758.751185   -1.65625   -0.43830    0.16129    9    diag,B
   22      0.364D-04      0.155D-05      -587.92333585    758.750698   -1.65764   -0.43783    0.16113    9    diag,B
   23      0.121D-04      0.721D-06      -587.92333593    758.749839   -1.65990   -0.43704    0.16116    9    diag,B
   24      0.862D-05      0.409D-06      -587.92333595    758.749643   -1.66053   -0.43683    0.16114    9    diag,B
   25      0.353D-05      0.204D-06      -587.92333595    758.749587   -1.66069   -0.43678    0.16114    9    diag,B
   26      0.108D-05      0.104D-06      -587.92333595    758.749512   -1.66095   -0.43670    0.16114    9    diag,B
   27      0.935D-06      0.511D-07      -587.92333595    758.749519   -1.66096   -0.43671    0.16114    0    orth

 Final alpha occupancy:  22
 Final beta  occupancy:  21

 !RHF STATE 1.1 Energy               -587.923335953651
 Nuclear energy                       158.65770562
 One-electron energy                -1125.95580087
 Two-electron energy                  379.37475930
 Virial quotient                       -1.00062058
 !RHF STATE 1.1 Dipole moment          -1.66095806    -0.43671145     0.16113800
 Dipole moment /Debye                  -4.22145778    -1.10993708     0.40954513

 ELECTRON ORBITALS
 =================


   Orb  Occ    Energy  Couls-En    Coefficients

                                   1 1s      1 1s      1 1s      1 1s      1 1s      1 2px     1 2py     1 2pz     1 2px     1 2py  
                                   1 2pz     1 2px     1 2py     1 2pz     1 2px     1 2py     1 2pz     1 3d0     1 3d2-    1 3d1+ 
                                   1 3d2+    1 3d1-    1 3d0     1 3d2-    1 3d1+    1 3d2+    1 3d1-    1 3d0     1 3d2-    1 3d1+ 
                                   1 3d2+    1 3d1-    1 4f1+    1 4f1-    1 4f0     1 4f3+    1 4f2-    1 4f3-    1 4f2+    1 4f1+ 
                                   1 4f1-    1 4f0     1 4f3+    1 4f2-    1 4f3-    1 4f2+    2 1s      2 1s      2 1s      2 1s   
                                   2 2px     2 2py     2 2pz     2 2px     2 2py     2 2pz     2 2px     2 2py     2 2pz     2 3d0  
                                   2 3d2-    2 3d1+    2 3d2+    2 3d1-    2 3d0     2 3d2-    2 3d1+    2 3d2+    2 3d1-    3 1s   
                                   3 1s      3 1s      3 1s      3 2px     3 2py     3 2pz     3 2px     3 2py     3 2pz     3 2px  
                                   3 2py     3 2pz     3 3d0     3 3d2-    3 3d1+    3 3d2+    3 3d1-    3 3d0     3 3d2-    3 3d1+ 
                                   3 3d2+    3 3d1-    4 1s      4 1s      4 1s      4 1s      4 2px     4 2py     4 2pz     4 2px  
                                   4 2py     4 2pz     4 2px     4 2py     4 2pz     4 3d0     4 3d2-    4 3d1+    4 3d2+    4 3d1- 
                                   4 3d0     4 3d2-    4 3d1+    4 3d2+    4 3d1-    5 1s      5 1s      5 1s      5 1s      5 1s   
                                   5 2px     5 2py     5 2pz     5 2px     5 2py     5 2pz     5 2px     5 2py     5 2pz     5 2px  
                                   5 2py     5 2pz     5 3d0     5 3d2-    5 3d1+    5 3d2+    5 3d1-    5 3d0     5 3d2-    5 3d1+ 
                                   5 3d2+    5 3d1-    5 3d0     5 3d2-    5 3d1+    5 3d2+    5 3d1-    5 4f1+    5 4f1-    5 4f0  
                                   5 4f3+    5 4f2-    5 4f3-    5 4f2+    5 4f1+    5 4f1-    5 4f0     5 4f3+    5 4f2-    5 4f3- 
                                   5 4f2+    6 1s      6 1s      6 1s      6 1s      6 1s      6 2px     6 2py     6 2pz     6 2px  
                                   6 2py     6 2pz     6 2px     6 2py     6 2pz     6 2px     6 2py     6 2pz     6 3d0     6 3d2- 
                                   6 3d1+    6 3d2+    6 3d1-    6 3d0     6 3d2-    6 3d1+    6 3d2+    6 3d1-    6 3d0     6 3d2- 
                                   6 3d1+    6 3d2+    6 3d1-    6 4f1+    6 4f1-    6 4f0     6 4f3+    6 4f2-    6 4f3-    6 4f2+ 
                                   6 4f1+    6 4f1-    6 4f0     6 4f3+    6 4f2-    6 4f3-    6 4f2+    7 1s      7 1s      7 1s   
                                   7 1s      7 1s      7 1s      7 2px     7 2py     7 2pz     7 2px     7 2py     7 2pz     7 2px  
                                   7 2py     7 2pz     7 2px     7 2py     7 2pz     7 2px     7 2py     7 2pz     7 3d0     7 3d2- 
                                   7 3d1+    7 3d2+    7 3d1-    7 3d0     7 3d2-    7 3d1+    7 3d2+    7 3d1-    7 3d0     7 3d2- 
                                   7 3d1+    7 3d2+    7 3d1-    7 3d0     7 3d2-    7 3d1+    7 3d2+    7 3d1-    7 4f1+    7 4f1- 
                                   7 4f0     7 4f3+    7 4f2-    7 4f3-    7 4f2+    7 4f1+    7 4f1-    7 4f0     7 4f3+    7 4f2- 
                                   7 4f3-    7 4f2+    8 1s      8 1s      8 1s      8 1s      8 2px     8 2py     8 2pz     8 2px  
                                   8 2py     8 2pz     8 2px     8 2py     8 2pz     8 3d0     8 3d2-    8 3d1+    8 3d2+    8 3d1- 
                                   8 3d0     8 3d2-    8 3d1+    8 3d2+    8 3d1-    9 1s      9 1s      9 1s      9 1s      9 2px  
                                   9 2py     9 2pz     9 2px     9 2py     9 2pz     9 2px     9 2py     9 2pz     9 3d0     9 3d2- 
                                   9 3d1+    9 3d2+    9 3d1-    9 3d0     9 3d2-    9 3d1+    9 3d2+    9 3d1- 

   1.1   2   -91.9357 -224.4184  0.000001  0.000003  0.000000 -0.000017  0.000023 -0.000000  0.000000  0.000000  0.000004  0.000002
                                -0.000003  0.000002 -0.000020 -0.000016  0.000003  0.000005 -0.000002 -0.000000  0.000000 -0.000000
                                -0.000000  0.000000  0.000001  0.000003 -0.000002  0.000002 -0.000005 -0.000007  0.000005  0.000003
                                 0.000004 -0.000010  0.000000 -0.000000 -0.000000  0.000000  0.000000  0.000000 -0.000000  0.000001
                                -0.000001  0.000001 -0.000001  0.000002  0.000001 -0.000000 -0.000000  0.000005 -0.000006 -0.000001
                                -0.000000 -0.000000  0.000000  0.000003  0.000001  0.000001  0.000008 -0.000003 -0.000006  0.000000
                                 0.000000  0.000000 -0.000000 -0.000000 -0.000000  0.000000  0.000001  0.000001 -0.000000 -0.000001
                                 0.000006 -0.000025  0.000002 -0.000000 -0.000000 -0.000000  0.000002  0.000001 -0.000002  0.000007
                                -0.000002  0.000003  0.000000  0.000000  0.000000  0.000000 -0.000000  0.000002  0.000001 -0.000000
                                -0.000002 -0.000001  0.000000  0.000011  0.000052  0.000000 -0.000000 -0.000000 -0.000000  0.000003
                                -0.000001 -0.000002  0.000016  0.000001 -0.000004  0.000000 -0.000000 -0.000000 -0.000000  0.000000
                                 0.000000  0.000000 -0.000001  0.000001 -0.000002 -0.000000 -0.000001  0.000000  0.000014 -0.000010
                                -0.000001  0.000000  0.000000  0.000002 -0.000001 -0.000001  0.000011  0.000019  0.000005  0.000006
                                 0.000003  0.000001 -0.000000 -0.000000  0.000000  0.000000 -0.000000 -0.000000  0.000000  0.000000
                                 0.000001  0.000000  0.000002  0.000002  0.000007 -0.000003  0.000006 -0.000000 -0.000000 -0.000000
                                 0.000001  0.000000 -0.000000  0.000000  0.000001  0.000000  0.000000 -0.000002 -0.000001  0.000001
                                -0.000000 -0.000001 -0.000002  0.000002 -0.000005  0.000047  0.000001 -0.000001 -0.000000 -0.000006
                                 0.000004  0.000001  0.000020  0.000029 -0.000006  0.000037  0.000003 -0.000011  0.000000 -0.000000
                                 0.000000 -0.000000  0.000000  0.000001  0.000002 -0.000001  0.000000 -0.000001 -0.000001  0.000006
                                -0.000012 -0.000000 -0.000006  0.000000 -0.000001  0.000000  0.000001  0.000000  0.000000 -0.000000
                                -0.000001  0.000002  0.000001 -0.000000 -0.000001 -0.000002 -0.000001  1.000036  0.000238  0.000384
                                -0.000166 -0.000270 -0.000081 -0.000128 -0.000068 -0.000059 -0.000257 -0.000137 -0.000117  0.000128
                                 0.000066  0.000058  0.000218  0.000032  0.000072  0.000015 -0.000000  0.000002  0.000002  0.000001
                                -0.000001  0.000000 -0.000001 -0.000009 -0.000004  0.000002 -0.000003  0.000006 -0.000024  0.000019
                                 0.000020 -0.000003  0.000031  0.000024  0.000010 -0.000015 -0.000018 -0.000009  0.000006 -0.000001
                                 0.000008  0.000005 -0.000005  0.000010  0.000004 -0.000002  0.000001  0.000001  0.000003 -0.000006
                                -0.000004  0.000002  0.000009 -0.000119  0.000028  0.000003 -0.000000 -0.000001 -0.000000 -0.000024
                                -0.000071 -0.000032 -0.000009 -0.000007 -0.000005  0.000000  0.000000  0.000000  0.000001 -0.000001
                                 0.000008 -0.000011 -0.000005  0.000017 -0.000016  0.000026 -0.000041  0.000064 -0.000002  0.000003
                                -0.000001 -0.000001 -0.000044  0.000022  0.000001  0.000059 -0.000060 -0.000000  0.000003  0.000004
                                -0.000001 -0.000001  0.000001  0.000023  0.000042 -0.000009 -0.000003  0.000002

   2.1   2   -20.7168  -61.4086  0.000098  0.000350  0.000107 -0.006049 -0.000490 -0.000005  0.000001 -0.000026  0.000196  0.000215
                                 0.000300 -0.001451 -0.001788 -0.001572 -0.000167 -0.000165 -0.000185 -0.000032  0.000014  0.000004
                                -0.000002  0.000015 -0.000249  0.000375 -0.000194  0.000100 -0.000149  0.000239  0.000066  0.000325
                                 0.000313 -0.000005  0.000003 -0.000006  0.000048  0.000006  0.000002 -0.000004  0.000008  0.000373
                                -0.000039  0.000513  0.000090  0.000184 -0.000109  0.000043 -0.000125  0.000822 -0.002229 -0.000148
                                -0.000014 -0.000014  0.000021  0.000515  0.000450 -0.000246 -0.000140 -0.000235 -0.000429 -0.000055
                                 0.000052 -0.000002  0.000008 -0.000001 -0.000103  0.000165 -0.000000  0.000038 -0.000024 -0.000077
                                 0.001337  0.001629  0.000101 -0.000018  0.000009 -0.000006 -0.000005  0.000142 -0.000269 -0.000223
                                 0.000236 -0.000361 -0.000003  0.000021  0.000012 -0.000001 -0.000020 -0.000007  0.000098  0.000004
                                 0.000056 -0.000010 -0.000079  0.001478  0.002885  0.000112  0.000013 -0.000009 -0.000023  0.000105
                                -0.000028 -0.000107  0.000390 -0.000242 -0.000496 -0.000009  0.000030 -0.000008  0.000017  0.000004
                                -0.000038  0.000095  0.000051 -0.000051 -0.000039  0.007849 -0.000167 -0.000254  0.001872  0.002556
                                -0.000177 -0.000194 -0.000145  0.000682  0.000630  0.000623  0.000670  0.000454  0.000837  0.000447
                                 0.000267  0.000479  0.000003 -0.000022 -0.000009  0.000004 -0.000002  0.000022  0.000599  0.000671
                                 0.000078  0.000527 -0.000102  0.000255  0.000340  0.000418  0.000270  0.000051  0.000042 -0.000072
                                -0.000041  0.000133  0.000074  0.000022  0.000172  0.000120 -0.000111 -0.000034  0.000261  0.000050
                                 0.000072  0.998834 -0.003096  0.001252 -0.000301 -0.001579 -0.001683 -0.002961 -0.003237  0.001551
                                 0.002788  0.002918 -0.001329  0.000734  0.001334 -0.000021  0.000129  0.000234  0.000048  0.000080
                                -0.000058  0.000066 -0.000027  0.000261 -0.000336 -0.000507 -0.000430 -0.000545  0.000077  0.000656
                                 0.000200 -0.000274  0.000074  0.000018  0.000024 -0.000036 -0.000026  0.000060  0.000067  0.000018
                                 0.000215  0.000026 -0.000152 -0.000133  0.000141  0.000073  0.000106 -0.000008 -0.000063 -0.000144
                                -0.000053  0.000114 -0.000053 -0.000035 -0.000029  0.000032 -0.000124 -0.000103  0.000112  0.000064
                                 0.000028 -0.000043 -0.000296 -0.000084  0.000314  0.000000 -0.000046  0.000006 -0.000002 -0.000001
                                -0.000002  0.000000  0.000003  0.000013  0.000002  0.000017 -0.000001 -0.000023 -0.000158 -0.000064
                                -0.000137 -0.000003  0.000210 -0.000088  0.000022 -0.000157  0.000176  0.000098  0.000017 -0.000007
                                 0.000013  0.000008 -0.000003  0.000021  0.000009  0.000086 -0.000066 -0.000065  0.000030 -0.000140
                                 0.000039  0.000034  0.000062 -0.000317 -0.000036 -0.000042  0.000004 -0.000002 -0.000004 -0.000031
                                -0.000102 -0.000023  0.000068  0.000003 -0.000020  0.000009  0.000001 -0.000004 -0.000001 -0.000006
                                -0.000023 -0.000042  0.000013  0.000022  0.000006 -0.000096  0.001845  0.000125  0.000089 -0.000134
                                 0.000020  0.000044 -0.001081  0.000508  0.000423  0.000803  0.000138 -0.000202 -0.000064 -0.000072
                                -0.000106  0.000109  0.000048 -0.000067 -0.000409 -0.000625  0.000153  0.000116

   3.1   2   -20.6903  -61.5605  0.000412  0.001446 -0.000276 -0.011223 -0.000604 -0.000266 -0.000219  0.000232  0.001516  0.001244
                                -0.001128  0.000825  0.000147 -0.000813 -0.000077 -0.000048 -0.000087  0.000003  0.000116 -0.000122
                                 0.000014 -0.000108  0.000144  0.001164 -0.001801  0.000089 -0.001678 -0.000047  0.000008 -0.000288
                                 0.000016 -0.000397  0.000117  0.000101  0.000129 -0.000092 -0.000205  0.000147 -0.000006  0.000662
                                 0.000241  0.000676 -0.000222  0.000489  0.000521  0.000214  0.000152  0.003218  0.002580 -0.000129
                                 0.000014  0.000012  0.000031  0.000764  0.000503  0.000113  0.000564  0.000329  0.000278 -0.000018
                                 0.000006  0.000024  0.000009  0.000018 -0.000024  0.000107 -0.000035  0.000039 -0.000046  0.000008
                                 0.002278  0.001776  0.000120 -0.000010  0.000016 -0.000008  0.000315  0.000540 -0.000453 -0.000023
                                 0.000522 -0.000387 -0.000001  0.000028 -0.000004 -0.000034 -0.000024  0.000023  0.000142 -0.000096
                                -0.000058 -0.000148  0.000007  0.002530  0.003064  0.000155  0.000018 -0.000012 -0.000017  0.000525
                                 0.000204 -0.000538  0.000675 -0.000262 -0.000573  0.000012  0.000013 -0.000030  0.000037 -0.000007
                                 0.000010  0.000108 -0.000148  0.000077 -0.000101  0.998782 -0.003010  0.001405 -0.002977 -0.003490
                                 0.000759  0.000269  0.005769 -0.000614 -0.000162 -0.005226 -0.000853 -0.000578 -0.002828 -0.000036
                                -0.000085 -0.000481 -0.000018  0.000024 -0.000028  0.000004 -0.000013  0.000033 -0.001098 -0.000333
                                -0.000235 -0.000220  0.000283 -0.000322 -0.000088  0.000083 -0.000045 -0.000007 -0.000009  0.000018
                                 0.000005 -0.000073 -0.000026 -0.000017 -0.000155 -0.000108  0.000274  0.000016 -0.000422 -0.000037
                                -0.000081 -0.007892  0.000116 -0.000324  0.003259  0.003204  0.000202  0.000183  0.000285 -0.000708
                                -0.000630 -0.000913 -0.002140 -0.001583 -0.001806 -0.000474 -0.000498 -0.000443 -0.000002  0.000005
                                -0.000010 -0.000001 -0.000009  0.000060  0.000510  0.000734  0.000129  0.000599  0.000059  0.000722
                                 0.000539 -0.000105  0.000464 -0.000061 -0.000041  0.000062  0.000027 -0.000126 -0.000062 -0.000034
                                -0.000088 -0.000103  0.000169  0.000072 -0.000305 -0.000126 -0.000025 -0.000007 -0.000047 -0.000090
                                 0.000020  0.000133  0.000047  0.000010 -0.000008 -0.000005  0.000047 -0.000029 -0.000019 -0.000008
                                 0.000011  0.000007 -0.000162  0.000074 -0.000044 -0.000014  0.000027  0.000032 -0.000002 -0.000002
                                -0.000000  0.000001  0.000001  0.000012  0.000009  0.000000 -0.000006 -0.000005 -0.000035 -0.000009
                                 0.000003 -0.000044  0.000036 -0.000046 -0.000068  0.000017  0.000040  0.000015 -0.000004  0.000007
                                 0.000006  0.000001  0.000002 -0.000014 -0.000001  0.000028 -0.000039 -0.000002  0.000031 -0.000024
                                 0.000025  0.000010  0.000027 -0.000122  0.000045 -0.000002  0.000003 -0.000001 -0.000002 -0.000017
                                -0.000025  0.000001 -0.000015  0.000022 -0.000014  0.000001  0.000003 -0.000004  0.000001  0.000000
                                -0.000010 -0.000023  0.000028  0.000000 -0.000006  0.000027  0.000344 -0.000948  0.000039 -0.000050
                                -0.000023 -0.000029  0.000097  0.000051  0.000080  0.000415  0.000026  0.000146 -0.000017  0.000002
                                 0.000008  0.000010 -0.000015  0.000139 -0.000109 -0.000079 -0.000154 -0.000062

   4.1   2   -11.3162  -37.7956  1.000767  0.006478  0.001522 -0.009465 -0.001078  0.002295  0.002101 -0.002205 -0.002631 -0.002362
                                 0.002584 -0.001572 -0.001075  0.003709 -0.000193 -0.000243  0.000185  0.000054 -0.000068  0.000105
                                -0.000006  0.000085 -0.000267 -0.001377  0.000255 -0.000270  0.000466 -0.000286 -0.000650  0.000262
                                -0.000228  0.000545 -0.000196  0.000047 -0.000059 -0.000058 -0.000981 -0.000141 -0.000259  0.000279
                                -0.000026 -0.000021  0.000118  0.001857  0.000351  0.000527  0.000519  0.002473  0.001775  0.000044
                                -0.000162 -0.000104 -0.000206 -0.000240 -0.000145 -0.000275  0.000051  0.000086  0.000133 -0.000075
                                -0.000081 -0.000221 -0.000043 -0.000145  0.000111 -0.000119 -0.000448 -0.000065 -0.000347  0.000571
                                 0.000654 -0.002016 -0.000236  0.000152 -0.000205  0.000129  0.000478 -0.000449  0.000647  0.000306
                                -0.000540  0.000858  0.000024  0.000168 -0.000133  0.000048  0.000158 -0.000095  0.000248 -0.000325
                                 0.000110  0.000284  0.000578  0.000371 -0.003157 -0.000040 -0.000148  0.000177  0.000183 -0.000272
                                 0.000534  0.000704 -0.000560  0.000370  0.001030 -0.000044  0.000134  0.000139  0.000026 -0.000187
                                -0.000214  0.000229  0.000192 -0.000004 -0.000338 -0.000084  0.000243  0.000076  0.005024  0.002650
                                -0.000364 -0.000298  0.000379 -0.000117 -0.000176  0.000118 -0.002703 -0.002195  0.002365 -0.000734
                                -0.000262  0.000389 -0.000016  0.000058 -0.000070  0.000001 -0.000064  0.000081 -0.000069  0.000068
                                 0.000027  0.000069  0.001205 -0.000465 -0.000364 -0.000409 -0.000356 -0.000009 -0.000001 -0.000026
                                -0.000020 -0.000009  0.000056  0.000013  0.000262  0.000206  0.000404 -0.000027 -0.000422 -0.000078
                                -0.000103  0.000031  0.000090  0.000019  0.000290 -0.000340 -0.000015 -0.000032  0.000038 -0.000006
                                 0.000058 -0.000133  0.000842  0.000511 -0.001257  0.000032  0.000123 -0.000005 -0.000032  0.000020
                                -0.000014  0.000003 -0.000005  0.000273 -0.000154  0.000125 -0.000055  0.000069  0.000495 -0.000573
                                 0.000227  0.000143  0.000227 -0.000012 -0.000020 -0.000008 -0.000017  0.000002  0.000039  0.000005
                                -0.000165 -0.000091 -0.000030  0.000001 -0.000030 -0.000016 -0.000003  0.000008  0.000051  0.000100
                                -0.000007 -0.000533 -0.000165  0.000007  0.000028  0.000037  0.000026  0.000094  0.000124 -0.000008
                                -0.000040 -0.000049  0.000558 -0.000230  0.000038 -0.000029 -0.000066 -0.000015  0.000001  0.000000
                                -0.000001 -0.000001 -0.000001 -0.000010  0.000000  0.000009  0.000006  0.000008  0.000053 -0.000045
                                -0.000064  0.000065 -0.000084  0.000012  0.000005 -0.000043 -0.000172 -0.000016 -0.000003 -0.000001
                                -0.000016 -0.000008 -0.000004  0.000002 -0.000008  0.000007  0.000023 -0.000007 -0.000053  0.000068
                                 0.000039  0.000016 -0.000020  0.000240 -0.000218 -0.000009 -0.000003  0.000001  0.000001  0.000028
                                 0.000089  0.000026 -0.000210 -0.000024 -0.000133  0.000001  0.000005  0.000001 -0.000006  0.000005
                                -0.000009 -0.000003 -0.000018 -0.000026 -0.000017 -0.000074 -0.000486  0.001990  0.000319  0.000027
                                 0.000010  0.000016 -0.000119 -0.000001 -0.000118 -0.000440 -0.000416 -0.000090 -0.000012 -0.000018
                                 0.000002  0.000017 -0.000006 -0.000210  0.000092  0.000122  0.000189  0.000100

   5.1   2    -8.9361  -43.9855 -0.000007 -0.000026  0.000001  0.000027 -0.000311  0.000012  0.000004 -0.000007 -0.000083 -0.000052
                                 0.000056  0.000164  0.000049  0.000296 -0.000128  0.000035  0.000006  0.000003 -0.000001  0.000003
                                -0.000004  0.000001 -0.000008 -0.000050  0.000023  0.000022  0.000057 -0.000021 -0.000105 -0.000009
                                -0.000000 -0.000049 -0.000000 -0.000001 -0.000002 -0.000001  0.000000  0.000001 -0.000002 -0.000023
                                 0.000013 -0.000004  0.000006 -0.000023 -0.000009 -0.000003 -0.000010 -0.000039  0.000467 -0.000016
                                 0.000001  0.000000 -0.000000 -0.000022 -0.000020 -0.000017  0.000072 -0.000019  0.000040 -0.000001
                                -0.000001 -0.000001  0.000000 -0.000002  0.000002 -0.000010 -0.000014  0.000008 -0.000008  0.000016
                                -0.000097 -0.000288  0.000115 -0.000001 -0.000001  0.000000 -0.000012 -0.000019  0.000027  0.000000
                                -0.000082  0.000061  0.000001  0.000000 -0.000001 -0.000003  0.000001 -0.000023  0.000003  0.000005
                                 0.000036  0.000020 -0.000007 -0.000119 -0.000188 -0.000105  0.000002  0.000001  0.000002 -0.000033
                                 0.000019  0.000018 -0.000049 -0.000017  0.000042  0.000000 -0.000000  0.000001  0.000001 -0.000003
                                -0.000005  0.000005  0.000007 -0.000004  0.000011  0.000003  0.000009 -0.000006 -0.000189  0.000136
                                -0.000021  0.000018 -0.000000  0.000008  0.000018  0.000002 -0.000192 -0.000313 -0.000080  0.000062
                                -0.000048 -0.000001  0.000003 -0.000001 -0.000000 -0.000003  0.000004 -0.000015  0.000010  0.000001
                                 0.000014 -0.000018 -0.000022 -0.000021 -0.000120  0.000059 -0.000083  0.000001  0.000001 -0.000001
                                -0.000001 -0.000001  0.000000 -0.000000 -0.000013 -0.000010 -0.000006  0.000007  0.000012 -0.000007
                                 0.000011  0.000027  0.000053 -0.000034  0.000506 -0.000064 -0.000021 -0.000051  0.000042  0.000120
                                -0.000026 -0.000056 -0.000191 -0.000123 -0.000191 -0.000241 -0.000143  0.000095 -0.000004 -0.000009
                                 0.000010  0.000002  0.000000 -0.000004  0.000015 -0.000063  0.000022  0.000006  0.000062  0.000065
                                 0.000088  0.000043  0.000025 -0.000004  0.000004  0.000006  0.000002  0.000006 -0.000005  0.000000
                                 0.000042 -0.000016  0.000011  0.000006 -0.000004  0.000021 -0.000046 -0.000376  0.997746 -0.003128
                                 0.001772  0.005079  0.000857 -0.002469 -0.001484 -0.001215  0.001762  0.000775  0.000703 -0.001412
                                -0.000731 -0.000625 -0.002349 -0.000627 -0.000850 -0.000105 -0.000064 -0.000049 -0.000383 -0.000120
                                 0.000101 -0.000113  0.000323 -0.000194  0.000010  0.000081 -0.000098  0.000207  0.000335  0.000007
                                -0.000145  0.000056 -0.000320 -0.000264 -0.000044  0.000179  0.000168  0.000142  0.000004  0.000003
                                 0.000043  0.000075 -0.000036  0.000038  0.000053 -0.000031  0.000007 -0.000054 -0.000079  0.000063
                                -0.000066 -0.000064  0.001029  0.000252 -0.002392 -0.000171 -0.000002  0.000010  0.000004  0.000107
                                 0.000264  0.000123 -0.000165 -0.000554 -0.000252  0.000024 -0.000056 -0.000031  0.000037 -0.000055
                                -0.000035 -0.000009  0.000011 -0.000012  0.000023  0.000414  0.000257 -0.002413  0.000178  0.000037
                                -0.000015  0.000001  0.000431 -0.000281  0.000080 -0.000677  0.000795 -0.000002  0.000024  0.000028
                                -0.000015 -0.000034  0.000004  0.000006 -0.000027  0.000032 -0.000085 -0.000030

   6.1   2    -6.6172  -40.8937  0.000017  0.000057  0.000045 -0.001746  0.000594 -0.000039 -0.000016  0.000051  0.000266  0.000086
                                -0.000357 -0.001565 -0.000346 -0.001675 -0.000054 -0.000110  0.000074 -0.000003  0.000001 -0.000005
                                 0.000007 -0.000005  0.000073  0.000294 -0.000102  0.000024 -0.000106  0.000121  0.000772  0.000510
                                 0.000032  0.000405  0.000014 -0.000005  0.000009  0.000015  0.000012 -0.000003 -0.000019  0.000000
                                 0.000009  0.000069 -0.000018  0.000180  0.000089  0.000129  0.000007  0.000154 -0.003726 -0.000088
                                -0.000009 -0.000009  0.000004  0.000064  0.000096  0.000021 -0.000308 -0.000140 -0.000498  0.000004
                                 0.000007  0.000001 -0.000002  0.000002 -0.000022  0.000054  0.000011  0.000012  0.000028 -0.000040
                                 0.000823  0.002766 -0.000138 -0.000016 -0.000001 -0.000004  0.000014  0.000176 -0.000114  0.000002
                                 0.000543 -0.000546  0.000000 -0.000007  0.000004 -0.000000 -0.000008  0.000042  0.000066 -0.000077
                                -0.000069 -0.000071 -0.000052  0.000822  0.001564 -0.000067 -0.000004 -0.000011 -0.000001  0.000193
                                -0.000046 -0.000237  0.000016 -0.000267 -0.000506  0.000003 -0.000002 -0.000007 -0.000007  0.000018
                                 0.000099 -0.000084 -0.000076 -0.000006 -0.000013  0.000010  0.000030 -0.000009  0.001248  0.000304
                                -0.000012 -0.000001 -0.000002  0.000037 -0.000018  0.000005  0.000754  0.000903  0.000288 -0.000406
                                 0.000015 -0.000076 -0.000004 -0.000010  0.000003  0.000001 -0.000002  0.000011  0.000055 -0.000012
                                 0.000003  0.000009  0.000021 -0.000054  0.000470 -0.000330  0.000334 -0.000002 -0.000001 -0.000002
                                 0.000017  0.000002  0.000005 -0.000002  0.000003  0.000006  0.000030 -0.000099 -0.000023  0.000030
                                 0.000017  0.000032  0.000085 -0.000043 -0.002234 -0.003913 -0.000022 -0.000038  0.000043  0.000020
                                 0.000069 -0.000085  0.002369  0.001557  0.001246 -0.000233  0.000720  0.000474  0.000002 -0.000016
                                 0.000013 -0.000011  0.000009 -0.000036  0.000055 -0.000091  0.000127 -0.000046 -0.000833  0.000320
                                -0.000658  0.000914 -0.000298  0.000016 -0.000008 -0.000028  0.000006  0.000004 -0.000022  0.000013
                                -0.000064  0.000024  0.000172  0.000083  0.000009  0.000116 -0.000125  0.000192  0.003377  0.000131
                                -0.001380  0.003640  0.000950  0.035316  0.924779  0.368466  0.000388 -0.011420 -0.003778 -0.000320
                                 0.005382  0.001764 -0.003052  0.008814  0.001876 -0.000390  0.000360 -0.000028  0.000045 -0.000421
                                -0.000196  0.000131 -0.000245  0.000040 -0.000465 -0.000202  0.000184 -0.000313  0.000020  0.002743
                                 0.000919 -0.000921  0.001630 -0.000451 -0.001859 -0.000119  0.000718 -0.000678 -0.000077  0.000048
                                -0.000047 -0.000046 -0.000066 -0.000180 -0.000038 -0.000100  0.000154  0.000461  0.000254 -0.000435
                                -0.000019  0.000269 -0.001002 -0.005378  0.007256  0.000384  0.000077  0.000122  0.000055 -0.000908
                                -0.002224 -0.000974  0.000232  0.001705  0.000747 -0.000043  0.000100  0.000062 -0.000023  0.000087
                                -0.000016 -0.000390 -0.000105  0.000040 -0.000086 -0.000017 -0.000079 -0.004399 -0.000305  0.000026
                                 0.000018  0.000001  0.001603 -0.000963  0.000069 -0.006115  0.001151 -0.000367  0.000052  0.000038
                                 0.000009 -0.000028 -0.000020 -0.000367  0.000733  0.000521  0.002336 -0.000553

   7.1   2    -6.6164  -40.9069  0.000062  0.000211  0.000063 -0.001962 -0.000038 -0.000083  0.000021 -0.000002  0.000715 -0.000039
                                 0.000033  0.000577 -0.000704  0.000328 -0.000262  0.000230 -0.000420 -0.000013  0.000002 -0.000009
                                 0.000008 -0.000012 -0.000094 -0.000011 -0.000076  0.000002 -0.000571 -0.000483 -0.000072 -0.000452
                                 0.000172 -0.001008  0.000020  0.000004 -0.000008 -0.000002  0.000053 -0.000000  0.000007  0.000128
                                 0.000035  0.000096 -0.000162  0.000038 -0.000019  0.000154 -0.000050  0.001088  0.002772 -0.000335
                                 0.000002  0.000011  0.000020  0.000384  0.000162  0.000170  0.000930 -0.000071  0.000046  0.000008
                                 0.000025  0.000024  0.000006  0.000011 -0.000068 -0.000020  0.000088  0.000093 -0.000015  0.000051
                                -0.000340 -0.002310  0.000546  0.000011  0.000004 -0.000008  0.000017 -0.000129  0.000104  0.000927
                                -0.000251  0.000487  0.000007 -0.000003  0.000005  0.000000  0.000002 -0.000042  0.000136 -0.000130
                                 0.000024  0.000024 -0.000072  0.001231  0.001368 -0.000053  0.000003 -0.000024 -0.000018  0.000309
                                -0.000067 -0.000245  0.000606  0.000240  0.000206 -0.000003 -0.000005 -0.000026  0.000002  0.000020
                                 0.000057 -0.000041  0.000014  0.000056 -0.000059 -0.000017 -0.000051  0.000016  0.000012 -0.000470
                                 0.000029 -0.000002  0.000011 -0.000069 -0.000030 -0.000050  0.001119  0.000317  0.000025  0.000284
                                 0.000188  0.000391 -0.000008 -0.000003 -0.000001  0.000009 -0.000001  0.000041 -0.000009 -0.000015
                                -0.000046 -0.000019 -0.000133  0.000078  0.000510  0.000200  0.000157 -0.000002 -0.000007 -0.000000
                                 0.000004  0.000009 -0.000001 -0.000010  0.000013  0.000033  0.000028  0.000017 -0.000068  0.000026
                                 0.000037 -0.000096 -0.000265  0.000110 -0.001195  0.003423  0.000128 -0.000017 -0.000055 -0.000396
                                 0.000126  0.000088  0.000562  0.000823  0.001573  0.001590 -0.000906  0.000016  0.000017  0.000027
                                -0.000037 -0.000005  0.000007  0.000005 -0.000046  0.000279 -0.000096 -0.000056 -0.000666  0.000241
                                 0.000363  0.000553 -0.000518  0.000023 -0.000023 -0.000012 -0.000011 -0.000004  0.000021  0.000009
                                -0.000202  0.000118 -0.000059 -0.000032 -0.000075 -0.000118  0.000104  0.000237  0.004336 -0.000208
                                -0.001939  0.006276 -0.003088  0.982866 -0.093889  0.143460 -0.007632  0.001919 -0.001123  0.003212
                                -0.001004  0.000464  0.003825 -0.004152 -0.000395  0.000684 -0.000557 -0.000096  0.000187 -0.000413
                                -0.000374 -0.000676  0.000025  0.000220 -0.000102 -0.000221 -0.000362 -0.000050 -0.000955 -0.000050
                                 0.000915  0.001835 -0.000079  0.000483  0.001043 -0.000075 -0.001478  0.000520  0.000050 -0.000028
                                -0.000046 -0.000189  0.000123  0.000050 -0.000082  0.000173  0.000018  0.000282  0.000054 -0.000173
                                 0.000102 -0.000140 -0.000397 -0.000616 -0.005388 -0.000491 -0.000003  0.000105  0.000046  0.000583
                                -0.000665 -0.000167 -0.000409 -0.001605 -0.000921 -0.000006  0.000051  0.000016 -0.000036  0.000053
                                 0.000080  0.000534  0.000230  0.000422 -0.000188 -0.000325 -0.001826  0.001168  0.001033  0.000029
                                -0.000025  0.000033 -0.002181  0.001333 -0.000527  0.000991 -0.001094 -0.001171 -0.000110 -0.000124
                                 0.000038  0.000140  0.000001  0.000025  0.000859  0.000644  0.000599 -0.000210

   8.1   2    -6.6154  -40.8997 -0.000017 -0.000061 -0.000008 -0.000065 -0.000807  0.000007 -0.000011  0.000005  0.000056  0.000043
                                -0.000051 -0.000621  0.000409 -0.001024 -0.000219  0.000293 -0.000017 -0.000002  0.000003 -0.000004
                                 0.000007 -0.000001  0.000062  0.000058  0.000051  0.000007 -0.000023  0.000030  0.000287  0.000188
                                 0.000247  0.000493  0.000004  0.000004 -0.000007 -0.000009  0.000010  0.000012  0.000006  0.000005
                                -0.000030  0.000036  0.000057 -0.000113 -0.000074 -0.000024  0.000010 -0.000284 -0.002407 -0.000169
                                 0.000002  0.000000  0.000001 -0.000033 -0.000007 -0.000001 -0.000412 -0.000278 -0.000289  0.000002
                                -0.000003  0.000004  0.000003  0.000007  0.000015 -0.000021  0.000023 -0.000009  0.000007 -0.000062
                                 0.000117  0.002067  0.000675  0.000002  0.000009  0.000003 -0.000033 -0.000049 -0.000072 -0.000625
                                -0.000065 -0.000227 -0.000001  0.000005  0.000001 -0.000006 -0.000002  0.000040 -0.000031  0.000046
                                 0.000090  0.000010 -0.000000 -0.000062  0.000694 -0.000143 -0.000010  0.000001  0.000004  0.000060
                                -0.000063 -0.000052  0.000152 -0.000127 -0.000241  0.000003 -0.000005 -0.000001  0.000009  0.000007
                                -0.000043  0.000059 -0.000059  0.000015 -0.000006  0.000012  0.000037 -0.000000 -0.001384  0.000507
                                 0.000029 -0.000014  0.000002 -0.000100  0.000021 -0.000010  0.000377 -0.000477 -0.000990 -0.000431
                                -0.000382 -0.000046  0.000001  0.000002  0.000001 -0.000006 -0.000001  0.000005 -0.000029 -0.000029
                                 0.000018  0.000006 -0.000366  0.000067 -0.000014  0.000237 -0.000279  0.000006  0.000006  0.000011
                                -0.000001  0.000001 -0.000008 -0.000013 -0.000038 -0.000019 -0.000025  0.000015 -0.000013  0.000035
                                 0.000030  0.000100  0.000318 -0.000029  0.002685  0.003104 -0.000058  0.000015  0.000029  0.000262
                                -0.000047 -0.000096 -0.001781 -0.000361  0.001540  0.000597 -0.000007 -0.000087 -0.000002 -0.000010
                                -0.000020  0.000011  0.000001  0.000023  0.000064  0.000131 -0.000079 -0.000020 -0.000362  0.000800
                                 0.001575 -0.000435 -0.000167  0.000029 -0.000011 -0.000003 -0.000000  0.000002 -0.000000 -0.000020
                                -0.000062  0.000030 -0.000054 -0.000079 -0.000088  0.000089  0.000162  0.000005  0.000208 -0.000133
                                -0.000081 -0.000048  0.000114 -0.168547 -0.358879  0.917918  0.000329  0.001865 -0.002984  0.000219
                                -0.000140 -0.000395 -0.000552 -0.000954  0.000794  0.000125  0.000151 -0.000393 -0.000502  0.000289
                                -0.000555 -0.000019 -0.000242 -0.000159  0.000137 -0.000278  0.000005 -0.000025  0.000549 -0.000740
                                 0.001300 -0.000065 -0.000314 -0.000129  0.000044 -0.000256  0.000319  0.000280  0.000001  0.000112
                                -0.000017  0.000043  0.000062  0.000018 -0.000066 -0.000175 -0.000278  0.000320 -0.000016  0.000276
                                 0.000084 -0.000061  0.000034  0.000152 -0.000431  0.000046  0.000017  0.000031 -0.000066 -0.000083
                                -0.000120  0.000696 -0.000144 -0.000206  0.000271 -0.000048  0.000038 -0.000027 -0.000019 -0.000030
                                 0.000383 -0.000150  0.000125  0.000116  0.000421 -0.000003  0.001955 -0.004523 -0.000439 -0.000049
                                 0.000032  0.000020 -0.000909  0.000114  0.000055  0.003349 -0.000614 -0.001680 -0.000046 -0.000020
                                -0.000052  0.000092  0.000020  0.000331  0.000080  0.002175 -0.001170 -0.001021

   9.1   2    -1.5564  -17.8443 -0.003575  0.144520 -0.002890 -0.118575 -0.004814  0.055926  0.049431 -0.041161 -0.001580 -0.002340
                                 0.004322 -0.023218 -0.024821  0.011792 -0.002473 -0.001002  0.000459 -0.000796  0.004391 -0.003940
                                 0.000533 -0.003432 -0.006420  0.013348 -0.006017  0.002708 -0.005685  0.004233 -0.003626 -0.000006
                                 0.002012 -0.002072 -0.000275 -0.000051  0.001348 -0.001084 -0.002902  0.001450 -0.000533  0.002455
                                -0.000649  0.006101  0.000114  0.002027  0.000019  0.000743  0.022508  0.001418  0.003786 -0.001159
                                 0.000543  0.000406  0.000248  0.003929  0.003379 -0.003817  0.002721 -0.000821  0.001523 -0.000482
                                 0.000559 -0.000020  0.000135 -0.000002 -0.000931  0.000200 -0.001010  0.000052 -0.000949  0.026462
                                 0.007337 -0.002060  0.000890 -0.000022  0.000823 -0.000545 -0.000008  0.001032 -0.001814  0.000677
                                 0.000282 -0.002345  0.000094  0.000055  0.000003 -0.000257 -0.000213 -0.000342  0.001398 -0.000050
                                 0.000976  0.001355  0.027281  0.009858  0.007479 -0.000574  0.000756 -0.000145 -0.000705  0.001366
                                -0.000254 -0.002031  0.003296  0.000847 -0.003943  0.000121 -0.000040 -0.000238  0.000254  0.000021
                                -0.000559  0.001139  0.001399 -0.000258 -0.000477 -0.005672  0.645338 -0.006308 -0.046140 -0.009238
                                 0.051659  0.033594  0.106332  0.002467  0.001696  0.009113 -0.018680 -0.015156 -0.025556  0.003107
                                 0.002158 -0.006352  0.000755  0.003193  0.002214  0.000731  0.001600  0.001688  0.010672  0.005884
                                 0.002091  0.004136 -0.004062 -0.000067 -0.001327  0.001507 -0.000628  0.000669  0.000431 -0.001595
                                -0.000215  0.003680  0.000865  0.000740  0.000598  0.000587 -0.001475  0.000572  0.002149 -0.001085
                                 0.000394 -0.003981  0.600286 -0.004434 -0.038320  0.017479 -0.073557 -0.071563 -0.083200 -0.003413
                                -0.005251 -0.006351  0.004479  0.010016  0.018624 -0.002759 -0.000574  0.001459  0.000002  0.002938
                                 0.002783  0.001069  0.002861 -0.000787  0.008807  0.008451  0.003130  0.008935 -0.002067  0.006247
                                -0.000299  0.000757 -0.001349 -0.000989 -0.000730  0.001776  0.000826 -0.002270 -0.001610 -0.000795
                                -0.000541 -0.000311  0.000916  0.000865 -0.001722 -0.000651 -0.000092 -0.000058 -0.000813  0.009735
                                -0.000457 -0.010434 -0.001997  0.000991 -0.000893  0.000171 -0.008046  0.001549  0.000626 -0.000258
                                 0.000740 -0.000144  0.004054 -0.010545 -0.000766  0.000438 -0.000491  0.000132 -0.000095 -0.000113
                                 0.000020  0.000119 -0.000000 -0.000582 -0.000791  0.000026  0.000451 -0.000094 -0.000528  0.000337
                                 0.000211  0.002389  0.000475  0.000157  0.002411  0.000082  0.001069  0.000931  0.000343 -0.000121
                                 0.000080 -0.000252  0.000035  0.000364 -0.000024  0.000209 -0.000029 -0.000083 -0.000808 -0.000456
                                 0.000285 -0.000425  0.002102 -0.000555 -0.009180  0.000007  0.000048  0.000074  0.000027 -0.000190
                                -0.000003  0.000175 -0.000833 -0.002802 -0.001225  0.000008 -0.000003 -0.000005 -0.000026  0.000039
                                -0.000120 -0.000266  0.000002  0.000459 -0.000056  0.090093 -0.023098 -0.023065 -0.000227 -0.003800
                                 0.000570  0.000830 -0.006620  0.000247  0.000799  0.017915 -0.003771  0.000687 -0.000822 -0.000408
                                -0.000096  0.001116 -0.000085 -0.002525 -0.001167 -0.000370  0.006084 -0.000886

  10.1   2    -1.2417  -16.4619  0.006318 -0.307779  0.006295  0.096963  0.004224 -0.068723 -0.062981  0.082893  0.006139  0.005945
                                -0.007161  0.019846  0.017382 -0.034240  0.000182 -0.000155 -0.000605 -0.000694 -0.004367  0.005001
                                -0.000446  0.004638 -0.004196 -0.005931  0.008395  0.000193  0.008719  0.005325  0.002723  0.002378
                                 0.003448 -0.000586 -0.000550 -0.001184 -0.000706  0.001159  0.005111 -0.001133  0.000826 -0.001611
                                -0.001321  0.000483  0.000534 -0.000525 -0.000659 -0.000482 -0.094455  0.017205  0.022025 -0.000380
                                -0.002115 -0.001561 -0.001071 -0.000056  0.000128 -0.000496  0.001226 -0.000742  0.000533  0.000349
                                -0.000522 -0.000305 -0.000158 -0.000264 -0.000202  0.002758  0.000824  0.000755  0.000383 -0.074766
                                 0.016433  0.034841  0.000134  0.000520 -0.001408  0.001181 -0.001855 -0.000148  0.001190 -0.002261
                                 0.001083 -0.005184 -0.000191 -0.000141  0.000085  0.000382  0.000577 -0.000832 -0.001098  0.001068
                                -0.000295 -0.001524 -0.073343  0.016131  0.036501  0.000215 -0.001072  0.000643  0.001383 -0.000426
                                -0.001597  0.001282  0.001354  0.000344 -0.004941 -0.000314 -0.000013  0.000573 -0.000318  0.000058
                                -0.000133 -0.000784 -0.001427 -0.000208  0.001461  0.001769 -0.548793  0.001806 -0.027404 -0.025293
                                 0.163747  0.126473  0.008156  0.002062  0.001760 -0.007015 -0.034197 -0.027628 -0.010771 -0.002563
                                -0.001583  0.000569  0.000007  0.000156  0.004628  0.000346  0.003770  0.000677 -0.002477  0.014156
                                 0.000680  0.011317  0.003035 -0.004066 -0.001714 -0.000389 -0.001182  0.000414  0.000355  0.000204
                                -0.000948 -0.000735  0.001827  0.000105  0.002375  0.001722  0.001986 -0.000593 -0.001765  0.000577
                                 0.000123 -0.000365  0.689645 -0.000292  0.033557  0.038744  0.097573  0.051791  0.021329 -0.000079
                                -0.004222 -0.005699 -0.015607 -0.012142 -0.016029  0.002807 -0.000781 -0.003642 -0.000034 -0.001573
                                -0.002028  0.000681 -0.000891  0.000545 -0.004782 -0.004713  0.003871 -0.000793  0.001572  0.000537
                                 0.000065  0.003292  0.000746 -0.000703 -0.000183  0.000020  0.000478  0.000269 -0.000294 -0.000305
                                -0.001710 -0.000591 -0.000291  0.000885  0.000757 -0.000845 -0.000899  0.000002 -0.000985  0.044085
                                -0.001161 -0.016319 -0.005219  0.001988 -0.000445  0.000624 -0.023622  0.011403  0.002042 -0.000596
                                -0.000108 -0.000637  0.007658 -0.010204  0.002936  0.000981 -0.001274  0.000121 -0.000258 -0.000325
                                 0.000029  0.000243  0.000012 -0.001566 -0.001955  0.000288  0.001361 -0.000019 -0.001455 -0.002004
                                -0.000963  0.002558  0.000429 -0.000237  0.002034 -0.001203  0.001160  0.001367  0.000723 -0.000388
                                 0.000038 -0.000067 -0.000064  0.001086  0.000083  0.000310  0.000052 -0.000345 -0.000654 -0.000556
                                 0.000207 -0.000070  0.010378 -0.001569 -0.009644 -0.000421 -0.000035  0.000354  0.000134  0.000120
                                 0.000787  0.000438  0.000070 -0.001544 -0.000871 -0.000016  0.000000 -0.000002 -0.000167  0.000109
                                -0.000030 -0.000026 -0.000079  0.000062  0.000082  0.176741 -0.050596 -0.071793  0.000784 -0.004698
                                 0.001500  0.002048 -0.004322  0.000747  0.001867  0.022880 -0.008128 -0.006458 -0.000940 -0.001246
                                -0.000467  0.001188  0.000105 -0.003186 -0.001670 -0.001673  0.003696  0.000702

  11.1   2    -0.9610  -13.5658 -0.008375  0.679108 -0.012321 -0.057946 -0.006174 -0.059660 -0.055045  0.053474  0.004063  0.003529
                                -0.005086 -0.008071  0.003244 -0.003202 -0.001941 -0.001349 -0.000818  0.000684 -0.003698  0.003461
                                -0.000247  0.003162  0.005287 -0.008370  0.007205 -0.000979  0.006692  0.001282 -0.000038  0.001921
                                -0.002214  0.004853 -0.000862  0.000584 -0.000831 -0.000570 -0.005610 -0.000108 -0.001510 -0.002660
                                 0.000217 -0.004163  0.000037 -0.004060 -0.001336 -0.001340  0.322110 -0.080334 -0.139708 -0.001341
                                 0.004930  0.003258  0.005588 -0.000725 -0.001167  0.005031 -0.008175 -0.003351 -0.006739  0.000427
                                 0.000605  0.001237  0.000279  0.000817 -0.000012 -0.003019 -0.001982 -0.000965 -0.001101  0.321946
                                -0.079209 -0.119033  0.000349 -0.004535  0.005453 -0.003812 -0.003167  0.001341 -0.000555  0.004888
                                -0.004792  0.004281 -0.000258 -0.000974  0.000683 -0.000262 -0.001029  0.000777  0.001680 -0.001174
                                 0.000729  0.003181  0.322643 -0.080882 -0.138903  0.000503  0.003713 -0.005084 -0.004942  0.000412
                                -0.002828 -0.001422 -0.007650  0.006318  0.006955  0.000147 -0.000740 -0.000957 -0.000235  0.001054
                                 0.000185  0.001184  0.002831  0.000364 -0.001941 -0.000658 -0.317089 -0.000677 -0.048388  0.008471
                                -0.148333 -0.151771  0.140283 -0.001777 -0.001547 -0.005200  0.003715  0.003346 -0.018426 -0.003666
                                -0.002456  0.004644  0.000914  0.000899 -0.002816  0.000050 -0.002686  0.002978 -0.000031 -0.008985
                                 0.000031 -0.008824  0.000460 -0.002466 -0.008416 -0.001692 -0.007872 -0.000010 -0.000116  0.000417
                                 0.000893 -0.000055 -0.001324 -0.000020 -0.001553 -0.001596  0.000509  0.000099 -0.000488  0.000271
                                 0.000114  0.000359  0.161392  0.001155  0.054310  0.007837  0.116662  0.056614  0.154466  0.001616
                                -0.001209 -0.000336 -0.021996 -0.017345 -0.026549  0.002010  0.000041  0.001842 -0.001366 -0.001836
                                -0.003162  0.000110 -0.002353 -0.006443 -0.003287 -0.009159  0.002204 -0.006056 -0.000785 -0.000098
                                -0.000635  0.000347  0.000221  0.000733  0.000992 -0.000680  0.000354  0.001225 -0.000041  0.000342
                                 0.001115  0.001562  0.000488  0.000409  0.000959 -0.001004 -0.000565 -0.000032 -0.002138  0.210384
                                -0.002376  0.003076  0.000511  0.001738  0.001416  0.000915 -0.035519  0.000554 -0.005797  0.000401
                                -0.000931 -0.000263  0.002308  0.011587  0.006834  0.000334  0.000403  0.000105 -0.000425 -0.000097
                                 0.000158 -0.000022  0.000313 -0.002554 -0.000794  0.001072 -0.000026  0.001938 -0.002421 -0.001355
                                -0.000114 -0.000096  0.000939  0.000244 -0.002013 -0.001908  0.000606 -0.001554  0.000959 -0.000322
                                 0.000826  0.000832 -0.000685  0.001692  0.000686 -0.000152  0.000099 -0.000515  0.000565 -0.000018
                                -0.001169  0.000217  0.081202 -0.013853 -0.017275  0.000171  0.000584  0.001907  0.000898  0.001041
                                 0.002900  0.001251  0.000591  0.001410  0.000008 -0.000207  0.000251  0.000135 -0.000447  0.000427
                                -0.000029 -0.000036 -0.000119  0.000383 -0.000353  0.124220 -0.023354 -0.063776  0.000956 -0.000242
                                -0.000011  0.001524  0.005592 -0.001982  0.003296 -0.012300  0.005260 -0.005827 -0.000186 -0.000849
                                -0.000529  0.000246  0.000164  0.001758 -0.000436 -0.001347 -0.003075  0.001267

  12.1   2    -0.9273  -15.1943  0.001716 -0.160764  0.002767  0.018413  0.004727  0.025793  0.011673 -0.040429 -0.001388 -0.002314
                                 0.002969  0.004611  0.003014  0.012712 -0.000151  0.003269 -0.000114  0.000343  0.001350 -0.001541
                                 0.000549 -0.001453  0.001235  0.000292 -0.003969  0.001096 -0.004053 -0.007310  0.001078 -0.000803
                                -0.000086 -0.001953  0.000661  0.000186  0.000145  0.000314  0.001059  0.000018  0.000123  0.000830
                                 0.000369 -0.000957 -0.000237  0.000565  0.001601  0.000865 -0.070469  0.020856  0.038593  0.000287
                                -0.000846 -0.000606 -0.001386 -0.000301 -0.000170  0.000047  0.004631  0.002090 -0.000074 -0.000140
                                -0.000115 -0.000225 -0.000055 -0.000168  0.000366 -0.000016  0.000501  0.000167  0.000253 -0.083491
                                 0.015478  0.021059  0.002708  0.001327 -0.001489  0.000853  0.001676 -0.001318  0.000433  0.000199
                                 0.000200  0.002519  0.000167  0.000337 -0.000200  0.000047  0.000227  0.000182 -0.000679 -0.000379
                                -0.000172 -0.000729 -0.098173  0.021257  0.039425 -0.002267 -0.001320  0.001512  0.001519  0.001044
                                 0.001587  0.000421  0.003579 -0.003058  0.000977 -0.000035  0.000260  0.000198  0.000111 -0.000355
                                 0.000187 -0.000712 -0.001548  0.000317 -0.000012  0.000398  0.133568  0.000493  0.029377  0.014529
                                 0.025921 -0.026671 -0.089550 -0.000004 -0.000256  0.001874  0.010395  0.008997  0.013627  0.005038
                                -0.000138  0.000909 -0.000969 -0.000664 -0.000186  0.000188 -0.000595 -0.003025 -0.000456 -0.000255
                                 0.000860 -0.001686 -0.001232  0.000830  0.004388  0.001159  0.002565 -0.000253 -0.000264 -0.000087
                                 0.000329 -0.000438  0.000052  0.000054 -0.000210 -0.000260 -0.000740  0.000091  0.000202  0.000451
                                 0.000381 -0.000779 -0.149145 -0.000694 -0.040582 -0.014900  0.078026 -0.024767 -0.074935  0.000386
                                 0.001198  0.001997  0.002851  0.012198  0.013355  0.005360  0.000449  0.000533  0.000036 -0.000730
                                -0.000217  0.000416  0.000738  0.000536 -0.003021 -0.001569  0.000286  0.001388 -0.000844 -0.003486
                                -0.002185  0.001228 -0.000799 -0.000500 -0.000211  0.000018  0.000157  0.000217 -0.000069  0.000188
                                -0.000366 -0.000151  0.000300 -0.000237  0.000466  0.000056  0.000047 -0.000334 -0.008543  0.815493
                                -0.007973 -0.018132 -0.002746  0.006093  0.006564  0.004420 -0.072347 -0.045366 -0.036176  0.000309
                                -0.003015 -0.001448  0.013894  0.016946  0.010323  0.002949  0.000405  0.000379 -0.001188  0.000576
                                 0.000817 -0.000781  0.001448 -0.007295  0.002504  0.004672 -0.004549  0.008410 -0.005421  0.002087
                                 0.003807 -0.000753  0.005525  0.003267  0.000722 -0.000352  0.002714 -0.003628  0.002366 -0.000430
                                 0.003599  0.003273 -0.002656  0.004521  0.002730 -0.000475  0.000121 -0.000314 -0.000314 -0.000136
                                -0.001499 -0.000830  0.345940 -0.058655 -0.111405 -0.000087  0.002921  0.007727  0.003633  0.004892
                                 0.011956  0.006000  0.000747 -0.003924 -0.000987 -0.000811  0.001303  0.000639 -0.001567  0.001758
                                 0.000052 -0.000298  0.000058  0.001116 -0.000542  0.209753 -0.023288 -0.079638  0.001201  0.003759
                                -0.002586  0.000246  0.011598 -0.009108  0.001761 -0.000151  0.002631  0.001048 -0.001135 -0.001610
                                 0.000043  0.000898  0.000006 -0.000699 -0.000015 -0.001063  0.002970 -0.000755

  13.1   2    -0.7515  -15.0080 -0.000886  0.032154 -0.001822  0.096062  0.016035 -0.069656 -0.171557 -0.178139 -0.001829  0.000851
                                 0.008997  0.020718  0.051781  0.050073  0.003356  0.002596  0.005026  0.004161 -0.000242  0.003076
                                 0.002723  0.000539  0.016339 -0.011149  0.006984  0.004566  0.003657 -0.017473  0.004014  0.001545
                                -0.011660  0.010043  0.001718  0.001231 -0.001140  0.001616 -0.000543 -0.000957 -0.001313 -0.002119
                                 0.000628 -0.009072  0.001085 -0.003727  0.001730 -0.000135  0.230667 -0.052537 -0.073839  0.003143
                                 0.004338  0.002166  0.002679 -0.004977 -0.005028  0.004956 -0.003579  0.007974 -0.004705  0.000169
                                 0.000180  0.000942  0.000282  0.000432  0.002196 -0.003408 -0.000815 -0.000980 -0.000062  0.010716
                                -0.024126 -0.013413 -0.002878 -0.000496 -0.001165 -0.001160  0.000678 -0.006089 -0.001290  0.002495
                                 0.005264  0.009316  0.000651  0.000180  0.000286  0.000454 -0.000051  0.000670 -0.000707 -0.001437
                                -0.000215 -0.000304 -0.141534  0.002778  0.005061 -0.002353 -0.003472  0.001216  0.002279 -0.001741
                                 0.002632  0.001481 -0.006291 -0.003632  0.010079 -0.000047  0.000630  0.000670 -0.000359 -0.000433
                                 0.000871 -0.000288 -0.003400  0.001281 -0.000507  0.000991  0.140161  0.002754  0.084970  0.018893
                                 0.047989 -0.232510 -0.425413 -0.002359 -0.002969  0.000288  0.028742  0.020150  0.032456  0.000039
                                -0.006390 -0.008749 -0.005268 -0.000798 -0.001689  0.000060 -0.003352 -0.017537  0.001012 -0.004568
                                 0.000991 -0.009775 -0.006668  0.000083  0.005311 -0.000380  0.000181 -0.001013 -0.001114 -0.000218
                                 0.001599 -0.002559 -0.000151 -0.000250 -0.001645 -0.001682 -0.003585  0.000099  0.000525  0.002044
                                 0.000655  0.000620  0.020574  0.000784 -0.026952  0.000490  0.487476  0.229875 -0.206450  0.004457
                                 0.002013  0.005543  0.005275  0.012186  0.022388  0.012570  0.009896 -0.004064  0.001782 -0.004483
                                -0.004009  0.000219 -0.000632  0.003699 -0.014411 -0.015045  0.000067 -0.002753  0.000971 -0.018682
                                -0.011127  0.001684 -0.005478 -0.001677 -0.000883 -0.001094  0.001012  0.002399  0.000926  0.000522
                                -0.000599 -0.000464 -0.000196  0.000358  0.002905  0.000020  0.000072  0.000040  0.000146 -0.192011
                                 0.000292 -0.029153 -0.012252  0.003873 -0.005913 -0.000366 -0.083120  0.099913  0.019025 -0.002396
                                 0.002303 -0.000705  0.016309 -0.027680 -0.000691  0.001668 -0.001906  0.000240 -0.000434 -0.001793
                                -0.000126  0.001446 -0.000888 -0.002070 -0.009602 -0.000596  0.007713 -0.004933 -0.002952 -0.009161
                                -0.002088  0.007030 -0.003135 -0.000587  0.000820 -0.000906  0.001624  0.001597  0.001397 -0.001216
                                -0.001130 -0.001235  0.001115  0.001338 -0.001550  0.000840 -0.000381 -0.000307 -0.000309 -0.000429
                                -0.000022 -0.000214 -0.139944  0.021827  0.032254  0.000011 -0.001755 -0.002340 -0.001328 -0.003510
                                -0.003523 -0.002360  0.000259 -0.003820 -0.000634  0.000179 -0.000818 -0.000395  0.000201 -0.000570
                                 0.000425  0.000188  0.000051  0.000340 -0.000165  0.298780 -0.060301 -0.077078 -0.002819 -0.004653
                                 0.002597  0.001428 -0.007868  0.006748  0.002208  0.032658 -0.012968 -0.006602 -0.000882 -0.002189
                                -0.000102  0.000604  0.000459 -0.007549 -0.010355 -0.003597  0.005926  0.003240

  14.1   2    -0.7142  -14.7685 -0.000339 -0.163755  0.002038 -0.080794 -0.007978  0.210626  0.197071 -0.286953 -0.018558 -0.016235
                                 0.014844 -0.041816 -0.015105  0.060719  0.004270  0.001821 -0.001117  0.000905  0.010829 -0.009002
                                 0.001593 -0.008499  0.007981  0.020817 -0.018654  0.001267 -0.017564 -0.006009  0.011331 -0.008071
                                -0.005649  0.003067  0.002516  0.001809  0.001152 -0.000447 -0.000978  0.000918  0.000168  0.000954
                                 0.002533 -0.000657 -0.002910 -0.000743  0.004571  0.001227 -0.131721  0.028222  0.066938  0.002960
                                -0.000342  0.000201 -0.004020 -0.003149 -0.002101 -0.004766  0.001881  0.008225  0.002020 -0.001363
                                 0.000305 -0.000743  0.000015 -0.000326  0.001318 -0.002824 -0.000461 -0.000786  0.000103 -0.254341
                                 0.052907  0.123197 -0.000300  0.004819 -0.003583  0.001751  0.008120 -0.000107 -0.001400 -0.002029
                                 0.011032 -0.000542  0.000792  0.001571 -0.000949 -0.000606 -0.000128  0.000366 -0.000573 -0.000357
                                -0.000205  0.000103 -0.255892  0.049182  0.063985  0.000906 -0.002193  0.005212  0.002963  0.000700
                                 0.008930 -0.001639 -0.005717 -0.000757  0.002670  0.000587  0.001091 -0.000116  0.000941 -0.001314
                                 0.001745 -0.000876 -0.000052 -0.000025  0.000015  0.000054  0.028388 -0.000879 -0.024215  0.003120
                                -0.408734 -0.347454  0.123663 -0.005188 -0.004692 -0.002838 -0.005136 -0.008208 -0.019078 -0.007831
                                -0.001843  0.002726  0.001666 -0.000552 -0.005846 -0.000586 -0.004924  0.004967 -0.002552 -0.020818
                                -0.001318 -0.017973 -0.004270 -0.000985 -0.020637 -0.004622 -0.018755  0.000449  0.000246  0.000762
                                 0.001994  0.000096 -0.003602 -0.000153 -0.003367 -0.002823 -0.000783  0.001595  0.000570 -0.001787
                                -0.000266  0.001077  0.150976  0.002593  0.102090 -0.010480  0.104865  0.082280  0.510228  0.003845
                                -0.000317  0.001831 -0.018585 -0.023951 -0.034742  0.003897  0.004934  0.013156 -0.002941 -0.001925
                                -0.003903 -0.000290 -0.004115 -0.012861 -0.002897 -0.010770  0.002245 -0.010705 -0.005333 -0.002429
                                -0.002438  0.001647 -0.001817  0.002077  0.002194 -0.001275  0.000313  0.001389  0.000034  0.000734
                                 0.002011  0.003188  0.001053  0.000425  0.000294 -0.001281 -0.000655  0.000109  0.000760 -0.016902
                                 0.000035  0.028018  0.011683 -0.000983 -0.000594 -0.000838 -0.020532  0.023343  0.015258  0.001120
                                 0.000016  0.000424 -0.010252  0.021124  0.005340 -0.001862  0.002206 -0.000519 -0.000051 -0.000348
                                -0.000215  0.000255 -0.000138 -0.000336 -0.002024 -0.000994  0.001666 -0.000589 -0.000604 -0.002386
                                -0.002367 -0.000423 -0.000706 -0.001147 -0.005814 -0.003064 -0.000668 -0.001441  0.000249 -0.000178
                                -0.000525 -0.000110 -0.000102  0.000386  0.000030 -0.000520  0.000178 -0.000545  0.001457  0.000000
                                -0.001953  0.000672 -0.028004  0.003255  0.031809  0.001814 -0.000377 -0.000493 -0.000190 -0.000244
                                -0.000915 -0.000615 -0.000021  0.007298  0.002447  0.000047 -0.000165 -0.000061  0.000036 -0.000126
                                -0.000068 -0.000161 -0.000099  0.000059 -0.000081  0.028985 -0.011527 -0.047953 -0.006659  0.000421
                                 0.000412  0.002838  0.010706 -0.001871  0.005095 -0.043194  0.015716 -0.010343  0.000981 -0.000129
                                -0.001136 -0.000705  0.000293  0.005557  0.002374 -0.001386 -0.007807  0.002408

  15.1   2    -0.7059  -14.2942  0.000288 -0.012624  0.000692 -0.044282 -0.020540  0.340992 -0.222424  0.077152 -0.005158  0.007068
                                -0.004285 -0.063935  0.050044 -0.015576 -0.007546  0.002167 -0.006964 -0.003331 -0.002156 -0.000297
                                 0.005465 -0.005543 -0.011631 -0.000570 -0.003181  0.014658 -0.012334  0.002172  0.007364 -0.001029
                                -0.032957  0.000793  0.000417 -0.001268  0.000470  0.001913  0.000441  0.002457 -0.003298  0.001982
                                -0.000918  0.003274  0.001580  0.001196  0.000964  0.000251 -0.171765  0.039873  0.067346 -0.005077
                                -0.001141 -0.003804 -0.002369  0.007134 -0.002387 -0.002581 -0.007958  0.015575  0.003873 -0.000285
                                -0.000444 -0.000148  0.000682 -0.001031 -0.001235  0.001910  0.000066  0.001245  0.000927  0.331009
                                -0.054691 -0.085330  0.009031 -0.002285  0.006281 -0.005078 -0.001151 -0.001208 -0.001291  0.008905
                                 0.007858  0.002665  0.000260 -0.000717  0.000832 -0.000924 -0.001394 -0.000013 -0.000662 -0.000479
                                 0.002904  0.004914 -0.237245  0.056652  0.066578  0.000701 -0.001669  0.002213  0.005308  0.007375
                                -0.001789  0.002490 -0.015771 -0.011876 -0.000353 -0.001216  0.000076  0.000503  0.000073 -0.000931
                                 0.000061 -0.000558 -0.002462  0.001372  0.001450 -0.000424 -0.053045 -0.001570 -0.035452  0.020938
                                 0.422323 -0.469903  0.182150  0.002282  0.000343  0.001074  0.003724 -0.007497 -0.009400  0.023053
                                -0.014210  0.008799  0.001837  0.000108  0.003897 -0.000233 -0.003658  0.006751 -0.000435  0.012104
                                -0.001613 -0.010293  0.000062  0.000950  0.007804 -0.000214 -0.007613  0.001082 -0.000695 -0.000102
                                 0.003091  0.000812  0.002048  0.000374  0.001185 -0.000703  0.001208  0.002763 -0.000291  0.000651
                                 0.000766 -0.000654 -0.071506 -0.001239 -0.028085 -0.021309 -0.017213 -0.277575  0.024785 -0.000769
                                -0.002450 -0.000969 -0.020883  0.010661 -0.001482 -0.014065 -0.005826  0.006546 -0.001260  0.001778
                                -0.000497 -0.002840  0.002650 -0.002541  0.006021 -0.001933 -0.012897  0.009501 -0.000866  0.004733
                                 0.004550 -0.005903  0.003390  0.000349  0.000278  0.000688  0.001395 -0.001177 -0.000090  0.001790
                                 0.001191 -0.000301  0.000342  0.000622 -0.000557  0.001133  0.003901 -0.000033 -0.000428 -0.054361
                                -0.000367  0.011618  0.002080 -0.000664 -0.000508 -0.000461 -0.064138  0.028875  0.007641  0.001780
                                -0.000197  0.000370 -0.015873  0.016701  0.001665 -0.001672  0.001418 -0.000074 -0.000179 -0.000334
                                 0.000016  0.000508 -0.000204 -0.001006 -0.002041 -0.000103  0.002388 -0.001026 -0.001891 -0.002353
                                 0.001115  0.006390 -0.001953 -0.000324 -0.002622  0.001739  0.008790 -0.002816  0.000866 -0.000318
                                -0.000070 -0.000668  0.000231  0.000319 -0.000586 -0.000548  0.000072 -0.000353 -0.001161  0.000073
                                -0.000966 -0.001253 -0.028601  0.006632  0.041879 -0.001685 -0.000575 -0.000499 -0.000269 -0.001568
                                 0.000544  0.000366  0.004521  0.007810  0.005788  0.000000 -0.000308 -0.000109  0.000036 -0.000057
                                -0.000408  0.000228  0.000307  0.001465  0.000120  0.038690  0.011622 -0.046790  0.002824 -0.000223
                                -0.001959  0.000214 -0.005392 -0.001672  0.002670 -0.015094  0.028934  0.004655 -0.000280  0.000376
                                -0.000457  0.000641 -0.000099  0.001879  0.002166 -0.000941  0.001226 -0.001386

  16.1   2    -0.6076  -12.5175 -0.000218  0.015862  0.000208 -0.041290 -0.009073  0.117309  0.443308  0.341546 -0.004478 -0.011284
                                -0.003102 -0.008697  0.003841  0.020554  0.000030  0.005534  0.003208 -0.001380 -0.004989 -0.015270
                                -0.002094 -0.000558 -0.003214 -0.017366 -0.043287 -0.006648 -0.001524  0.002986 -0.013210 -0.026492
                                 0.000075  0.004107 -0.000006  0.000924  0.000257 -0.000370 -0.001012  0.001478  0.000324  0.002490
                                 0.004590 -0.002750  0.000891  0.000953  0.005425  0.000859 -0.515041  0.120744  0.258524  0.004245
                                -0.007911 -0.002872 -0.006277 -0.001047  0.006930  0.003554  0.015280  0.013275  0.019777 -0.000223
                                -0.000687 -0.001771 -0.001084 -0.000432  0.000401  0.000959  0.001166 -0.000989  0.001726 -0.083345
                                 0.017544  0.044220  0.003074  0.001856  0.001397  0.003371  0.003779  0.008127  0.008312 -0.004404
                                 0.001973 -0.001290 -0.001028  0.000032 -0.001140 -0.001216  0.000305 -0.001042 -0.000955 -0.001366
                                -0.001297  0.000301  0.447166 -0.097127 -0.231990 -0.004602  0.006377 -0.004073 -0.005387  0.005163
                                 0.005140  0.004403 -0.011117  0.017474  0.017372  0.000033 -0.001159 -0.001874  0.000898  0.000584
                                -0.001599  0.000963  0.000214  0.001218 -0.002939  0.000274  0.013678 -0.001149 -0.003086  0.001701
                                -0.079466 -0.098862  0.139305  0.000120 -0.000070  0.001462  0.000369 -0.000826  0.009484 -0.000940
                                -0.001936  0.006082  0.001119 -0.000463 -0.003329  0.001372 -0.002578  0.003001 -0.001120 -0.011326
                                 0.004905 -0.009260  0.006712 -0.002463 -0.003010 -0.000202 -0.002133 -0.001665 -0.001267 -0.000004
                                 0.000284  0.000397 -0.000263  0.000888 -0.002222 -0.002454 -0.000183 -0.000312  0.000419 -0.000042
                                 0.000713 -0.001514 -0.126994 -0.001773 -0.043753 -0.015991  0.274104  0.039878 -0.242716  0.000049
                                -0.000601  0.001725 -0.000661  0.008208 -0.006651  0.006813  0.001818 -0.005320 -0.000563 -0.001018
                                -0.002072  0.001270  0.000442 -0.003046 -0.002646 -0.007184  0.003981  0.000984  0.002990 -0.006131
[...]
                                -0.000704  0.013521  0.008964 -0.001176  0.002780 -0.000224 -0.047715 -0.063646 -0.002094  0.001383
                                -0.001305  0.000615 -0.015981  0.025322  0.005554 -0.003596  0.001707 -0.000949 -0.000067  0.000821
                                 0.000063 -0.000424  0.000595 -0.000526  0.004014  0.000161 -0.002188  0.003150 -0.000375  0.004239
                                 0.001070 -0.001295  0.002887 -0.002073 -0.001469  0.000343  0.003399 -0.000445 -0.000146  0.000488
                                 0.000453  0.000479 -0.001020 -0.000039  0.000867 -0.000494  0.000457  0.000007  0.000236 -0.000473
                                -0.001526 -0.000893  0.068640 -0.009736  0.008768  0.001472  0.000191  0.000855  0.000591  0.000342
                                 0.001100  0.000958 -0.000703  0.007553  0.003478 -0.000008  0.000126  0.000139 -0.000184  0.000258
                                -0.000916 -0.000944 -0.000121  0.001391  0.000233 -0.093484  0.018985 -0.024570 -0.003442  0.001606
                                -0.001988  0.001826  0.002217 -0.007266  0.002332 -0.021370  0.012289 -0.005925  0.000896  0.000999
                                -0.001224 -0.000544  0.000133  0.004972  0.006250  0.000761 -0.004193 -0.001961

  19.1   2    -0.5116  -13.3452  0.000354 -0.024663  0.000714  0.000919 -0.003148 -0.025092 -0.129644  0.018900  0.002071  0.004069
                                -0.003344  0.008485 -0.012066 -0.013873 -0.001324 -0.006601 -0.001989 -0.000072 -0.001189  0.004858
                                -0.001394 -0.000533 -0.001672  0.000625  0.014633 -0.002585 -0.001228 -0.001324 -0.002520  0.006006
                                -0.001386 -0.007676 -0.000145 -0.000355 -0.000318 -0.000385  0.000851 -0.000731  0.000671 -0.000938
                                -0.000948  0.001913 -0.000805  0.000568 -0.002517  0.000364  0.060726 -0.015863 -0.026442 -0.003256
                                 0.000823 -0.000232  0.001091  0.000398 -0.002217 -0.000768 -0.001415 -0.003208 -0.001800  0.000249
                                -0.000119  0.000282  0.000237 -0.000044  0.000063  0.000285  0.000038  0.000484 -0.000211  0.092901
                                -0.014141 -0.047971 -0.002232 -0.001441  0.000735 -0.000951 -0.002267 -0.000432 -0.000906  0.005795
                                -0.000825  0.002635 -0.000057 -0.000366  0.000419  0.000329 -0.000084 -0.000104  0.001051  0.000155
                                 0.000474 -0.000329 -0.073904  0.022447  0.050857  0.003036 -0.000656  0.000217  0.001086 -0.000612
                                -0.002876 -0.000937  0.004943 -0.003582 -0.002775 -0.000183 -0.000000  0.000395 -0.000281  0.000035
                                 0.000035  0.000018  0.001053 -0.000568  0.000884  0.000408  0.042013  0.001068  0.021213  0.014134
                                -0.006614  0.167851 -0.092104  0.000594  0.000460  0.000010 -0.002255  0.007454 -0.005906 -0.002532
                                 0.005150 -0.003233  0.000510 -0.001097  0.001189 -0.000439  0.001681  0.002149 -0.003629  0.004373
                                -0.000984  0.005425 -0.001660  0.001820  0.001759 -0.001092  0.004214  0.000487  0.000535  0.000344
                                -0.000643 -0.000549  0.000091 -0.000287  0.001443  0.001469  0.001187  0.000068 -0.000821 -0.000289
                                -0.000302 -0.001237 -0.057943 -0.000284 -0.013692 -0.006726 -0.145453 -0.141725  0.204903  0.000406
                                 0.000701 -0.000388 -0.005010 -0.007132  0.016241 -0.007458 -0.006602  0.011782 -0.000678  0.000243
                                 0.001067  0.000675 -0.000075 -0.001010 -0.000424  0.004689  0.002213 -0.000616 -0.004104  0.004010
                                 0.001825  0.001450 -0.002174  0.000231  0.000445 -0.000030 -0.000484 -0.000634 -0.000204 -0.000043
                                -0.000708  0.000446 -0.000813  0.000116 -0.000569 -0.000521 -0.000215 -0.000427  0.001416  0.278069
                                 0.003576  0.079113  0.029741 -0.005183 -0.014341 -0.007329  0.148368  0.569334  0.256204  0.004354
                                 0.003308  0.003085 -0.028613 -0.018031 -0.014324 -0.000839  0.001101  0.000483  0.001383 -0.005197
                                -0.001963  0.004556 -0.004814  0.007046 -0.026663 -0.010105  0.023579 -0.024685  0.006020 -0.033403
                                -0.010329  0.026973 -0.028362  0.000316 -0.019043 -0.005390  0.008833 -0.010954  0.000877 -0.002619
                                -0.006412 -0.005662  0.006030 -0.000919 -0.006157 -0.000043 -0.000866 -0.001473 -0.000297  0.002385
                                 0.001623 -0.000864 -0.602221  0.070538  0.170653 -0.005877 -0.003736 -0.008188 -0.003993 -0.004552
                                -0.005209 -0.003450  0.005661  0.016688  0.005837  0.000868 -0.001772 -0.000975  0.001279 -0.001828
                                -0.000055  0.001736  0.000410 -0.002774  0.001529  0.094053 -0.000950 -0.071825  0.007241  0.006269
                                -0.001816  0.001567  0.016426 -0.003256  0.004292 -0.021833  0.006424 -0.005896 -0.000058  0.000527
                                 0.000255  0.001664 -0.000492  0.003195  0.006853  0.005154 -0.000881 -0.001838

  20.1   2    -0.4380  -13.9083 -0.000320  0.033676 -0.000667  0.007430 -0.003062 -0.002420  0.136722 -0.001076 -0.001381 -0.003918
                                 0.003610 -0.032552  0.040779  0.020657 -0.004951  0.011818  0.004641  0.001014 -0.000031 -0.006897
                                 0.003848  0.003334  0.003659 -0.002050 -0.019217  0.008581  0.010421  0.006712  0.003449 -0.014075
                                -0.009275  0.015663  0.000373  0.000381  0.000071  0.001572 -0.000423  0.001404 -0.001922 -0.000097
                                 0.001647 -0.000706  0.002672 -0.001593  0.001989 -0.000154 -0.057478  0.011249  0.028588  0.002962
                                -0.000856  0.000427 -0.000842 -0.000881  0.002965  0.000540 -0.003005  0.008004  0.004722 -0.000175
                                 0.000158 -0.000243 -0.000267  0.000127 -0.000023 -0.000426 -0.000338 -0.000482  0.001034 -0.125736
                                 0.022910  0.088454  0.008657  0.001395 -0.000643  0.001055 -0.000111  0.000290  0.001230 -0.002740
                                 0.010591 -0.005953  0.000136  0.000250 -0.000348 -0.000502  0.000112 -0.000895 -0.000222 -0.000616
                                 0.000847  0.001542  0.134945 -0.034969 -0.112093 -0.010176  0.000746 -0.001045 -0.001436  0.000711
                                 0.003541 -0.000082 -0.015838  0.009476  0.008478  0.000109 -0.000025 -0.000451  0.000093  0.000145
                                 0.000586  0.000607 -0.001844  0.001539 -0.000549 -0.000304 -0.025492 -0.000537 -0.021289 -0.027972
                                 0.176527 -0.352133  0.026565 -0.001306 -0.001000 -0.000194  0.011348 -0.032395 -0.004259  0.005131
                                -0.021882 -0.001177 -0.000912  0.001394 -0.000348 -0.000170 -0.002172 -0.003895  0.004921 -0.002330
                                -0.001478 -0.006918 -0.003489 -0.000178 -0.001296  0.000673 -0.008463 -0.000349 -0.000799 -0.000401
                                 0.001193  0.000319  0.000561  0.000208 -0.001800 -0.001308 -0.001670  0.000849  0.001109  0.000495
                                -0.000129  0.002830  0.143022  0.001694  0.056283  0.053004  0.098427  0.276942 -0.207892  0.000150
                                -0.000637 -0.000631  0.000788  0.012139 -0.015263  0.010239  0.009441 -0.016854  0.001840  0.000734
                                -0.000733 -0.002247 -0.000009  0.004770  0.004695 -0.003634 -0.007939  0.001283  0.002484  0.004792
                                 0.002932 -0.000828 -0.000599 -0.000052 -0.000942 -0.000336  0.000798  0.000460  0.001030  0.000420
                                 0.001130 -0.001099  0.000086  0.000769 -0.000614  0.001645  0.001346 -0.000443  0.001671  0.211087
                                 0.005629  0.034705 -0.006450 -0.008084 -0.001342 -0.002138  0.657472 -0.069358  0.114136 -0.000029
                                 0.003207  0.000939  0.009934 -0.027426 -0.007613  0.018731 -0.005815  0.001411  0.002606  0.001665
                                -0.001118 -0.001537 -0.000798  0.013479  0.008749 -0.005746 -0.008302 -0.003983  0.016138  0.014460
                                -0.006271 -0.012361 -0.002015  0.009936  0.011214 -0.004042 -0.012035  0.001075 -0.004501  0.001888
                                -0.002093 -0.000773  0.001528 -0.004599  0.000474 -0.000988  0.000355 -0.000333  0.000111  0.000292
                                 0.000142  0.001154 -0.125380  0.005215 -0.004261 -0.003015  0.002851 -0.002848 -0.000549  0.009221
                                -0.007519 -0.001257  0.001758 -0.006817 -0.004145  0.000396  0.000784  0.000448  0.001665 -0.000821
                                 0.000236  0.002196  0.001113  0.000032  0.000038 -0.341447  0.013120  0.116934  0.005858 -0.006346
                                 0.005932 -0.001116 -0.020890  0.020421 -0.003422  0.018945 -0.008625 -0.000174  0.000886  0.000900
                                 0.000403 -0.000954  0.000378 -0.004928 -0.007489 -0.000219  0.006877 -0.000889

  21.1   2    -0.3555  -13.1073 -0.000042  0.000411 -0.000224  0.011473 -0.000143  0.000569  0.005263 -0.005436  0.000327 -0.000438
                                 0.000785  0.001324 -0.001813  0.000003  0.000990 -0.000434  0.000957 -0.000170  0.000131  0.000184
                                -0.000240 -0.000376 -0.000114 -0.000665  0.000515 -0.001005 -0.001603  0.000452  0.001381  0.000663
                                 0.000680  0.000179 -0.000060 -0.000012  0.000022 -0.000181 -0.000191 -0.000089  0.000208 -0.000095
                                 0.000081 -0.000459 -0.000219 -0.000380 -0.000197 -0.000236  0.000573 -0.000547 -0.004463  0.001627
                                -0.000027  0.000044 -0.000034  0.000060 -0.000033  0.000241 -0.000486 -0.000630 -0.000189 -0.000005
                                 0.000009 -0.000015 -0.000005  0.000026 -0.000054 -0.000104  0.000246 -0.000034  0.000045  0.001083
                                -0.002985 -0.002872 -0.002492  0.000168 -0.000101  0.000073  0.001207 -0.000601  0.000450  0.002649
                                -0.002244  0.000523 -0.000029  0.000095 -0.000046  0.000051  0.000038  0.000242 -0.000167  0.000131
                                -0.000035 -0.000118 -0.004339 -0.001130  0.001660  0.000182 -0.000053  0.000075 -0.000025 -0.000368
                                 0.000041  0.000144 -0.000558 -0.000225 -0.000755  0.000039  0.000001 -0.000005  0.000041 -0.000016
                                -0.000094 -0.000119 -0.000027  0.000060 -0.000092  0.000050  0.001714 -0.000108  0.000502 -0.001327
                                -0.019868  0.029734  0.015546  0.000088  0.000168  0.000389  0.001599  0.004172  0.001941 -0.004886
                                 0.001932  0.002241 -0.000189  0.000177 -0.000048  0.000162 -0.000034 -0.000825  0.000598  0.000021
                                 0.000806 -0.000208 -0.000325  0.000775  0.000367 -0.000084 -0.000070 -0.000103 -0.000063 -0.000121
                                -0.000105  0.000081 -0.000013  0.000114 -0.000192 -0.000363 -0.000329 -0.000218  0.000134  0.000258
                                 0.000219 -0.000127 -0.011657 -0.000471  0.000144  0.009368  0.050661 -0.012394 -0.059707  0.000737
                                -0.000350 -0.000380  0.007955 -0.000231  0.001880  0.007005 -0.000860 -0.006110  0.000016 -0.000320
                                 0.000474  0.000054  0.000040 -0.000201 -0.001372  0.001396  0.000557 -0.000205 -0.003043 -0.001243
                                 0.004098 -0.000669 -0.000690 -0.000310 -0.000096  0.000028  0.000045  0.000027 -0.000222 -0.000028
                                -0.000517  0.000351  0.000128 -0.000237 -0.000109 -0.000079  0.000107 -0.000071 -0.000233  0.005582
                                 0.000471 -0.006759 -0.000997  0.001831  0.002970 -0.007292 -0.168378 -0.324043  0.833534 -0.001837
                                -0.002101  0.005635 -0.009738 -0.017561  0.039023 -0.007961 -0.013704  0.033907 -0.000488  0.000733
                                -0.000933 -0.000077 -0.000275 -0.002559  0.003814 -0.004841 -0.000480 -0.001388 -0.002421  0.004510
                                -0.005013 -0.000538 -0.002160 -0.001386  0.004365 -0.006261  0.001237  0.000671  0.001593  0.004380
                                -0.002878 -0.000063 -0.001533  0.000215 -0.000084  0.001325  0.003687 -0.002361 -0.000178 -0.000943
                                 0.000447 -0.000100 -0.000709 -0.000794 -0.000014  0.000941 -0.001137 -0.002049  0.005169 -0.003498
                                -0.006653  0.017460 -0.003215 -0.003251  0.012330  0.001615 -0.000682  0.000585  0.000622  0.001549
                                 0.001888 -0.000776  0.000416  0.000323  0.002060 -0.022834 -0.001089 -0.005397 -0.000358 -0.002225
                                -0.000523  0.003087 -0.007875 -0.003533  0.014331  0.012241 -0.007878  0.003063  0.000443 -0.000038
                                 0.001394 -0.000842 -0.000962  0.000271 -0.001964  0.009777 -0.003156 -0.005408

  22.1   +    -0.5464  -15.3329 -0.000155  0.001897 -0.000164 -0.034284  0.040865 -0.003783  0.014881 -0.009036 -0.001194  0.000361
                                -0.000599 -0.031262  0.022746 -0.010087 -0.001843  0.012973  0.003154  0.000110  0.000212 -0.002888
                                 0.003642  0.003571 -0.000473  0.003707 -0.008394  0.007587  0.008255  0.002218  0.013602 -0.000357
                                 0.002926  0.016119 -0.000032 -0.000155  0.000219  0.001260  0.000007  0.000985 -0.002047  0.001586
                                -0.001378  0.001471  0.001156  0.001066  0.001777 -0.001173  0.008339 -0.000548 -0.038979  0.004423
                                -0.000086  0.000061  0.000017  0.000359  0.000499 -0.001112 -0.002612  0.003354 -0.008367 -0.000037
                                -0.000002 -0.000066  0.000045 -0.000073 -0.000600  0.000830 -0.000332 -0.000107 -0.000026 -0.055334
                                 0.013402  0.076410  0.005788  0.000471 -0.000198  0.000050  0.000449  0.000795 -0.001978 -0.005176
                                 0.013281 -0.013472  0.000196  0.000043 -0.000085 -0.000334 -0.000101 -0.000603  0.000822 -0.000132
                                -0.000487 -0.000130  0.041576 -0.004165 -0.005449 -0.014118 -0.000111 -0.000111 -0.000058  0.001040
                                 0.000168 -0.000225  0.002408  0.001836 -0.009716 -0.000109  0.000128  0.000144 -0.000173  0.000065
                                 0.000384  0.000315 -0.002509  0.000040 -0.000040  0.000003 -0.007241 -0.000200 -0.021635  0.016430
                                 0.225319 -0.255172  0.025845 -0.000523  0.000180 -0.000477  0.020706 -0.042412 -0.006487  0.034087
                                -0.008770  0.001016 -0.000041  0.000706 -0.000367 -0.002917  0.000371  0.000050  0.001527 -0.002883
                                -0.012146  0.002426 -0.000487 -0.003837  0.001765  0.003286 -0.006127 -0.000175  0.000134 -0.000011
                                -0.000093  0.000371  0.000053 -0.001596 -0.000906  0.000991 -0.000103  0.000055 -0.000014 -0.000761
                                -0.002665 -0.002159 -0.038448  0.000890  0.016529 -0.101466 -0.556402  0.708118 -0.028095 -0.005392
                                 0.003202  0.000339 -0.019599 -0.000268 -0.003293 -0.009971  0.039200  0.007205  0.001245  0.001784
                                 0.001255  0.000707 -0.001054  0.003264  0.006840  0.004168 -0.001142 -0.001121  0.005282  0.002938
                                 0.009088  0.001351  0.001609  0.002251 -0.002203 -0.000222  0.001617 -0.000059  0.002263 -0.001466
                                 0.001007 -0.002610 -0.001179  0.000361 -0.001838  0.001632  0.002073 -0.000219 -0.002411  0.044537
                                -0.002491  0.005030  0.022719  0.001707  0.000825 -0.000978 -0.387140  0.167275  0.048591  0.001645
                                -0.003713  0.001358 -0.032467  0.016008  0.000359 -0.016199  0.006822  0.003571 -0.000946 -0.001556
                                 0.000475  0.001296 -0.000587 -0.004380 -0.007227  0.002143  0.006093 -0.002861 -0.009048 -0.016394
                                 0.005621  0.011409 -0.006041 -0.007852 -0.012795  0.004421  0.015299 -0.007166  0.002295 -0.001177
                                 0.000086  0.000661 -0.000204  0.001766 -0.001761  0.003137 -0.000840  0.000557 -0.002017  0.001341
                                 0.002701 -0.001575 -0.024677  0.006110  0.017527  0.003567 -0.002434  0.000659  0.000252 -0.006687
                                 0.003908  0.001344  0.004671  0.001932  0.003055  0.000065 -0.000742 -0.000343 -0.000695  0.000261
                                 0.000583  0.000545  0.000095 -0.001393  0.000235 -0.019969  0.042592  0.039312 -0.014592  0.012179
                                -0.002106 -0.002962  0.026853 -0.004215 -0.008171 -0.007687 -0.007866  0.012569 -0.000573 -0.001800
                                 0.001485 -0.000690  0.000274  0.003544  0.004880  0.007923 -0.010881 -0.003233

 HOMO     22.1    -0.546420 =     -14.8688eV
 LUMO     23.1     0.022891 =       0.6229eV
 LUMO-HOMO         0.569311 =      15.4917eV


 **********************************************************************************************************************************
 DATASETS  * FILE   NREC   LENGTH (MB)   RECORD NAMES
              1      19     4043.00       500      610      700      900      950      970     1000      129      960     1100   
                                          VAR    BASINP    GEOM    SYMINP    ZMAT    AOBASIS   BASIS     P2S    ABASIS      S 
                                         1400     1410     1200     1210     1080     1600     1650     1300     1700   
                                           T        V       H0       H01     AOSYM     SMH    MOLCAS    ERIS     OPER   

              2       4        5.60       700     1000      520     2100   
                                         GEOM     BASIS   MCVARS     RHF  

 PROGRAMS   *        TOTAL        HF       INT
 CPU TIMES  *       637.22    534.52    102.59
 REAL TIME  *      1944.57 SEC
 DISK USED  *        17.02 GB      
 **********************************************************************************************************************************


 PROGRAM * MULTI (Direct Multiconfiguration SCF)       Authors: P.J. Knowles, H.-J. Werner (1984)     S.T. Elbert (1988)


 Number of closed-shell orbitals:   8 (   8 )
 Number of active  orbitals:       21 (  21 )
 Number of external orbitals:     279 ( 279 )

 State symmetry 1

 Number of electrons:    27    Spin symmetry=Doublet   Space symmetry=1
 Number of states:        1
 Number of CSFs: 7711999680   (23661817200 determinants, 23661817200 intermediate states)

 Molecular orbitals read from record     2100.2  Type=RHF/CANONICAL (state 1.1)

 Wavefunction dump at record             2140.2

 Convergence thresholds  0.10E-01 (gradient)  0.10E-05 (energy)  0.10E-02 (step length)

 Number of orbital rotations:     8259   (   168 Core/Active   2232 Core/Virtual   0 Active/Active   5859 Active/Virtual)
 Total number of variables:23661825459


 ITER. MIC  NCI  NEG     ENERGY(VAR)     ENERGY(PROJ)   ENERGY CHANGE     GRAD(0)  GRAD(ORB)   GRAD(CI)     STEP       TIME

 insufficient memory available - require            23661817216  have 
            3999999059
 the request was for real words
