
 Primary working directories    : /tmp
 Secondary working directories  : /tmp
 Wavefunction directory         : /home/alongd/wfu/
 Main file repository           : /tmp/

 SHA1      : 5e3d8ac6839c721e2824de82269b4736200146bd
 NAME      : 2015.1.37
 ARCHNAME  : linux/x86_64
 FC        : /opt/intel/composer_xe_2015.1.133/bin/intel64/ifort
 BLASLIB   : -Wl,-_start-group /opt/intel/mkl/lib/intel64/libmkl_intel_ilp64.a /opt/intel/mkl/lib/intel64/libmkl_intel_thread.a /opt/intel/mkl/lib/intel64/libmkl_core.a -Wl,-_end-group
 id        : phalgunlolur

 Nodes     nprocs
 node07       1

 Using customized tuning parameters: mindgm=1; mindgv=20; mindgc=4; mindgr=1; noblas=0; minvec=7
 default implementation of scratch files=df  

 ***,name
 memory,500,m;
 
 geometry={angstrom;
 N       0.7033634988     0.0974820728    -0.0730473920
 N      -0.7033634988    -0.0974820728    -0.0730473920
 H       1.0539960456     0.3871635195     0.8315583036
 H      -1.0539960456    -0.3871635195     0.8315583036
 H       1.1434808787    -0.7765990298    -0.3202265599
 H      -1.1434808787     0.7765990298    -0.3202265599
 }
 
 gprint,orbitals;
 
 basis=aug-cc-pVTZ
 
 {hf;
 maxit,1000;
 wf,spin=0,charge=0}
 
 put,molden,orbitals_1_hf.mol
 
 {multi;
 noextra,failsafe,config,csf;
 wf,spin=0,charge=0;
 natorb,print,ci;}
 
 {mrci;
 wf,spin=0,charge=0}
 

 Variables initialized (889), CPU time= 0.01 sec
 Commands  initialized (702), CPU time= 0.01 sec, 572 directives.
 Default parameters read. Elapsed time= 0.07 sec

 Checking input...
 Passed
1


                                         ***  PROGRAM SYSTEM MOLPRO  ***
                                       Copyright, TTI GmbH Stuttgart, 2015
                                    Version 2015.1 linked Aug 10 2018 15:00:15


 **********************************************************************************************************************************
 LABEL *   name                                                                          
  64 bit serial version                                                                  DATE: 31-Oct-18          TIME: 06:23:05  
 **********************************************************************************************************************************

 SHA1:             5e3d8ac6839c721e2824de82269b4736200146bd
 **********************************************************************************************************************************

Geometry recognized as XYZ



 Variable memory set to  500000000 words,  buffer space   230000 words

 SETTING BASIS          =    AUG-CC-PVTZ


 Recomputing integrals since basis changed


 Using spherical harmonics

 Library entry N      S aug-cc-pVTZ          selected for orbital group  1
 Library entry N      P aug-cc-pVTZ          selected for orbital group  1
 Library entry N      D aug-cc-pVTZ          selected for orbital group  1
 Library entry N      F aug-cc-pVTZ          selected for orbital group  1
 Library entry H      S aug-cc-pVTZ          selected for orbital group  2
 Library entry H      P aug-cc-pVTZ          selected for orbital group  2
 Library entry H      D aug-cc-pVTZ          selected for orbital group  2


 PROGRAM * SEWARD (Integral evaluation for generally contracted gaussian basis sets)     Author: Roland Lindh, 1990

 Geometry written to block  1 of record 700


 Point group  C2  



 ATOMIC COORDINATES

 NR  ATOM    CHARGE       X              Y              Z

   1  N       7.00    1.329164379    0.184214420   -0.138039565
   2  N       7.00   -1.329164379   -0.184214420   -0.138039565
   3  H       1.00    1.991763863    0.731633017    1.571417450
   4  H       1.00   -1.991763863   -0.731633017    1.571417450
   5  H       1.00    2.160865689   -1.467559475   -0.605140496
   6  H       1.00   -2.160865689    1.467559475   -0.605140496

 Bond lengths in Bohr (Angstrom)

 1-2  2.683738361  1-3  1.913360521  1-5  1.907424271  2-4  1.913360521  2-6  1.907424271
     ( 1.420173181)     ( 1.012506784)     ( 1.009365456)     ( 1.012506784)     ( 1.009365456)

 Bond angles

  1-2-4  112.47618938   1-2-6  108.24151671   2-1-3  112.47618938   2-1-5  108.24151671

  3-1-5  108.39381540   4-2-6  108.39381540

 NUCLEAR CHARGE:                   18
 NUMBER OF PRIMITIVE AOS:         242
 NUMBER OF SYMMETRY AOS:          216
 NUMBER OF CONTRACTIONS:          184   (  92A   +  92B   )
 NUMBER OF CORE ORBITALS:           2   (   1A   +   1B   )
 NUMBER OF VALENCE ORBITALS:       12   (   6A   +   6B   )


 NUCLEAR REPULSION ENERGY   41.78471756

 Eigenvalues of metric

         1 0.189E-03 0.324E-03 0.107E-02 0.168E-02 0.262E-02 0.292E-02 0.299E-02 0.382E-02
         2 0.745E-04 0.179E-03 0.324E-03 0.433E-03 0.138E-02 0.196E-02 0.245E-02 0.301E-02


 Contracted 2-electron integrals neglected if value below      1.0D-11
 AO integral compression algorithm  1   Integral accuracy      1.0D-11

     419.430 MB (compressed) written to integral file ( 51.9%)


 NUMBER OF SORTED TWO-ELECTRON INTEGRALS:   73209414.     BUFFER LENGTH:  32768
 NUMBER OF SEGMENTS:   5  SEGMENT LENGTH:   15999809      RECORD LENGTH: 524288

 Memory used in sort:      16.56 MW

 SORT1 READ   101111688. AND WROTE    70607682. INTEGRALS IN    204 RECORDS. CPU TIME:     1.31 SEC, REAL TIME:     2.12 SEC
 SORT2 READ    70607682. AND WROTE    73209414. INTEGRALS IN   1600 RECORDS. CPU TIME:     1.60 SEC, REAL TIME:     2.05 SEC

 FILE SIZES:   FILE 1:   440.3 MBYTE,  FILE 4:   855.7 MBYTE,   TOTAL:   1295.9 MBYTE

 OPERATOR DM      FOR CENTER  0  COORDINATES:    0.000000    0.000000    0.000000


 **********************************************************************************************************************************
 DATASETS  * FILE   NREC   LENGTH (MB)   RECORD NAMES
              1      19      336.96       500      610      700      900      950      970     1000      129      960     1100   
                                          VAR    BASINP    GEOM    SYMINP    ZMAT    AOBASIS   BASIS     P2S    ABASIS      S 
                                         1400     1410     1200     1210     1080     1600     1650     1300     1700   
                                           T        V       H0       H01     AOSYM     SMH    MOLCAS    ERIS     OPER   

 PROGRAMS   *        TOTAL       INT
 CPU TIMES  *         7.60      7.47
 REAL TIME  *        34.76 SEC
 DISK USED  *         1.30 GB      
 **********************************************************************************************************************************


 PROGRAM * RHF-SCF (CLOSED SHELL)       Authors: W. Meyer, H.-J. Werner


 NUMBER OF ELECTRONS:       9+    9-
 CONVERGENCE THRESHOLDS:    1.00E-05 (Density)    1.00E-07 (Energy)
 MAX. NUMBER OF ITERATIONS:     1000
 INTERPOLATION TYPE:            DIIS
 INTERPOLATION STEPS:              2 (START)      1 (STEP)
 LEVEL SHIFTS:                  0.00 (CLOSED)  0.00 (OPEN) 



 Orbital guess generated from atomic densities. Full valence occupancy:    7   7

 Molecular orbital dump at record        2100.2

 Initial occupancy:   5   4

 ITERATION    DDIFF          GRAD             ENERGY        2-EL.EN.            DIPOLE MOMENTS         DIIS   ORB.
    1      0.000D+00      0.000D+00      -111.20146194    162.183852    0.00000    0.00000    1.05870    0    start
    2      0.000D+00      0.571D-02      -111.22566575    160.629648    0.00000    0.00000    0.68797    1    diag
    3      0.614D-02      0.180D-02      -111.22778162    161.505282    0.00000    0.00000    0.78591    2    diag
    4      0.147D-02      0.604D-03      -111.22809585    161.219331    0.00000    0.00000    0.77644    3    diag
    5      0.519D-03      0.142D-03      -111.22812007    161.265894    0.00000    0.00000    0.77787    4    diag
    6      0.959D-04      0.265D-04      -111.22812161    161.261433    0.00000    0.00000    0.77945    5    diag
    7      0.286D-04      0.643D-05      -111.22812174    161.261637    0.00000    0.00000    0.77971    6    diag
    8      0.118D-04      0.184D-05      -111.22812175    161.261629    0.00000    0.00000    0.77981    7    diag
    9      0.406D-05      0.416D-06      -111.22812175    161.261592    0.00000    0.00000    0.77981    0    orth

 Final occupancy:   5   4

 !RHF STATE 1.1 Energy               -111.228121747966
 Nuclear energy                        41.78471756
 One-electron energy                 -233.64363506
 Two-electron energy                   80.63079575
 Virial quotient                       -1.00155086
 !RHF STATE 1.1 Dipole moment           0.00000000     0.00000000     0.77980560
 Dipole moment /Debye                   0.00000000     0.00000000     1.98193833

 ELECTRON ORBITALS
 =================


   Orb  Occ    Energy  Couls-En    Coefficients

                                   1 1s      1 1s      1 1s      1 1s      1 1s      1 2pz     1 2px     1 2py     1 2pz     1 2px  
                                   1 2py     1 2pz     1 2px     1 2py     1 2pz     1 2px     1 2py     1 3d0     1 3d2-    1 3d2+ 
                                   1 3d1+    1 3d1-    1 3d0     1 3d2-    1 3d2+    1 3d1+    1 3d1-    1 3d0     1 3d2-    1 3d2+ 
                                   1 3d1+    1 3d1-    1 4f0     1 4f2-    1 4f2+    1 4f1+    1 4f1-    1 4f3+    1 4f3-    1 4f0  
                                   1 4f2-    1 4f2+    1 4f1+    1 4f1-    1 4f3+    1 4f3-    2 1s      2 1s      2 1s      2 1s   
                                   2 2pz     2 2px     2 2py     2 2pz     2 2px     2 2py     2 2pz     2 2px     2 2py     2 3d0  
                                   2 3d2-    2 3d2+    2 3d1+    2 3d1-    2 3d0     2 3d2-    2 3d2+    2 3d1+    2 3d1-    3 1s   
                                   3 1s      3 1s      3 1s      3 2pz     3 2px     3 2py     3 2pz     3 2px     3 2py     3 2pz  
                                   3 2px     3 2py     3 3d0     3 3d2-    3 3d2+    3 3d1+    3 3d1-    3 3d0     3 3d2-    3 3d2+ 
                                   3 3d1+    3 3d1- 

   1.1   2   -15.5688  -44.1782  0.999650  0.001134  0.000986 -0.000950  0.001382  0.003546 -0.002517 -0.003563 -0.002373  0.001172
                                 0.002280 -0.001682 -0.000546  0.002362  0.000063 -0.000354 -0.000050 -0.000039 -0.000039  0.000058
                                 0.000095  0.000119  0.000292  0.000041 -0.000331 -0.000237  0.000124 -0.000256 -0.000851  0.000643
                                -0.000492 -0.000050  0.000202  0.000187  0.000031  0.000084  0.000200 -0.000173  0.000080 -0.000100
                                -0.000409  0.000225 -0.000330 -0.000423  0.000490  0.000344  0.001662 -0.000206 -0.000790 -0.000065
                                 0.000192  0.000077  0.000054 -0.000060  0.000407  0.000141 -0.000166  0.000290 -0.000154 -0.000256
                                -0.000120 -0.000128 -0.000285 -0.000143  0.000128  0.000193 -0.000237  0.000136  0.000008  0.001212
                                 0.000393 -0.002908 -0.000089 -0.000025  0.000135 -0.000213  0.000424  0.000455  0.000294 -0.000068
                                 0.000469 -0.000421  0.000195  0.000342  0.000137  0.000011 -0.000049  0.000151 -0.000095 -0.000369
                                -0.000011  0.000200

   2.1   2    -1.2593  -10.8982 -0.011849  0.848436 -0.012605 -0.116716  0.010403  0.058998 -0.147408 -0.068617  0.004013 -0.001166
                                -0.004130 -0.018708  0.033885  0.034793 -0.001771  0.002511  0.001022 -0.003536  0.000492  0.005900
                                 0.000281  0.002697 -0.007854  0.001972  0.014655  0.000935  0.002733 -0.001455 -0.004369  0.007321
                                -0.000628 -0.007011  0.001268  0.001094  0.001110  0.004354  0.002328 -0.005534 -0.001492 -0.001371
                                -0.000744  0.001360  0.000954 -0.000914  0.000193 -0.001152  0.310785 -0.082321 -0.123747 -0.000114
                                -0.007656 -0.004324 -0.002942 -0.003014 -0.008936 -0.002225  0.007832  0.000037  0.003134  0.000303
                                 0.000751  0.000802  0.001565  0.000298 -0.003906  0.001236 -0.000216  0.000502 -0.002294  0.309379
                                -0.076651 -0.130009 -0.002267  0.002581 -0.005279  0.007582  0.003401 -0.007594  0.002654  0.000174
                                 0.003329 -0.010047 -0.000863 -0.001429  0.000407 -0.000701  0.000211  0.003263  0.001247  0.001709
                                -0.001195 -0.001646

   3.1   2    -0.6802   -8.9801 -0.001099 -0.075065  0.001594 -0.019639 -0.009278  0.627882  0.288389  0.218962 -0.028169 -0.010266
                                -0.016313 -0.069322 -0.044578 -0.039463  0.007030 -0.000078  0.001824  0.013511  0.002078 -0.002631
                                 0.001366  0.000291  0.026743  0.000233 -0.009553 -0.007994 -0.001194  0.010671  0.008695 -0.009225
                                 0.000836 -0.000888 -0.002567  0.000829  0.002546 -0.002000  0.001490  0.002644  0.000762  0.001747
                                -0.001093  0.001016 -0.000930 -0.001110  0.003329  0.001668  0.699297 -0.088457 -0.233063 -0.005406
                                -0.015764 -0.006439 -0.005601 -0.025258 -0.006607 -0.007891  0.013562  0.008160  0.006152  0.005036
                                 0.001158  0.000015  0.003493  0.003648 -0.000388 -0.002393  0.000633 -0.004649 -0.001842 -0.262810
                                 0.040661  0.116153  0.006014  0.002991  0.006356 -0.005954  0.012084  0.015721 -0.009011  0.009105
                                -0.002478  0.010602  0.002454  0.003368  0.000147 -0.000117  0.000879  0.001837  0.003276  0.001240
                                -0.000605  0.002892

   4.1   2    -0.6131   -9.2487 -0.000935  0.005851  0.003991  0.045543  0.008822 -0.165790  0.752552 -0.231357  0.008349 -0.020873
                                 0.015405  0.027554 -0.069476  0.030094  0.000071  0.007254  0.001669  0.002089 -0.012169 -0.014266
                                 0.003648  0.002833  0.011205 -0.023815 -0.037677  0.009679  0.007357  0.013142 -0.006502 -0.021211
                                 0.004082  0.004235  0.001067  0.001105  0.000055 -0.004307 -0.000656  0.004853  0.001861  0.002776
                                -0.003882 -0.000385 -0.003637  0.002370  0.000346  0.006732  0.067149 -0.027476 -0.038632 -0.000533
                                -0.003203  0.006194 -0.002390 -0.003371  0.024407 -0.004703  0.001607  0.009371 -0.000579  0.002392
                                -0.001003 -0.002361 -0.002903  0.001257  0.001220 -0.002470 -0.002025 -0.006292  0.000463  0.638301
                                -0.093293 -0.182553 -0.000181  0.003861 -0.001920  0.016050  0.002779  0.013284  0.025682  0.000113
                                 0.013959 -0.002003 -0.002069 -0.001915 -0.006548 -0.000180  0.002926  0.000265  0.008866 -0.004306
                                 0.002152 -0.002284

   5.1   2    -0.4073   -8.5581  0.001992  0.205454  0.001466  0.161014  0.082435 -0.397480  0.233009  0.727686  0.005251  0.005337
                                -0.020700 -0.015386  0.012510  0.024389 -0.020514  0.012122  0.040328  0.004674  0.006494  0.001245
                                 0.006738  0.004254  0.011950  0.013533 -0.000448  0.020082  0.014017  0.003801 -0.011391 -0.003530
                                 0.007581  0.010783  0.000573  0.001371 -0.003913 -0.001273 -0.000865  0.002776 -0.000603  0.004572
                                 0.000340 -0.001617  0.003978  0.000359  0.001976 -0.001074  0.118432 -0.039833 -0.023900  0.003957
                                -0.006290  0.002547  0.007080 -0.007714  0.011364  0.026345 -0.013765  0.007928  0.013978  0.003688
                                -0.001516  0.000207 -0.000558 -0.002202  0.005626 -0.000566  0.001378 -0.002296 -0.004338 -0.399053
                                 0.018451  0.022312 -0.010715 -0.007693  0.006501 -0.003087 -0.019605  0.016646 -0.002772 -0.017471
                                 0.006402  0.006830  0.000439  0.003155 -0.000226  0.002146 -0.003218 -0.002298  0.001883 -0.005861
                                 0.001633 -0.000820

                                   1 1s      1 1s      1 1s      1 1s      1 1s      1 2px     1 2py     1 2pz     1 2px     1 2py  
                                   1 2pz     1 2px     1 2py     1 2pz     1 2px     1 2py     1 2pz     1 3d1+    1 3d1-    1 3d0  
                                   1 3d2-    1 3d2+    1 3d1+    1 3d1-    1 3d0     1 3d2-    1 3d2+    1 3d1+    1 3d1-    1 3d0  
                                   1 3d2-    1 3d2+    1 4f1+    1 4f1-    1 4f3+    1 4f3-    1 4f0     1 4f2-    1 4f2+    1 4f1+ 
                                   1 4f1-    1 4f3+    1 4f3-    1 4f0     1 4f2-    1 4f2+    2 1s      2 1s      2 1s      2 1s   
                                   2 2px     2 2py     2 2pz     2 2px     2 2py     2 2pz     2 2px     2 2py     2 2pz     2 3d1+ 
                                   2 3d1-    2 3d0     2 3d2-    2 3d2+    2 3d1+    2 3d1-    2 3d0     2 3d2-    2 3d2+    3 1s   
                                   3 1s      3 1s      3 1s      3 2px     3 2py     3 2pz     3 2px     3 2py     3 2pz     3 2px  
                                   3 2py     3 2pz     3 3d1+    3 3d1-    3 3d0     3 3d2-    3 3d2+    3 3d1+    3 3d1-    3 3d0  
                                   3 3d2-    3 3d2+ 

   1.2   2   -15.5684  -44.1781  0.999333 -0.000306  0.001609 -0.010679 -0.004683 -0.002751 -0.003626  0.003590  0.004802  0.002699
                                -0.002473  0.005930  0.002803 -0.003788  0.001519  0.000248  0.000261  0.000065  0.000192  0.000098
                                -0.000148 -0.000162  0.000104 -0.000277  0.000921 -0.000419 -0.001722  0.001115 -0.000127  0.000205
                                 0.000043 -0.000635  0.000082  0.000208 -0.000149  0.000058  0.000181  0.000221  0.000076 -0.000676
                                -0.000323  0.000689 -0.000038 -0.000269 -0.000389 -0.000530  0.001300  0.001474 -0.001717 -0.000430
                                 0.000092  0.000085  0.000234 -0.000045 -0.000394 -0.000097  0.000034 -0.000080  0.000534 -0.000245
                                -0.000145 -0.000391 -0.000013  0.000076 -0.000116  0.000118  0.000032 -0.000020 -0.000241  0.001511
                                 0.000459 -0.000805 -0.000177  0.000088 -0.000234 -0.000092 -0.000151 -0.000248 -0.000132  0.000140
                                -0.000207 -0.000250  0.000071 -0.000165  0.000186  0.000288  0.000325 -0.000080 -0.000103  0.000102
                                 0.000039  0.000005

   2.2   2    -1.0098   -9.6395 -0.008232  0.787505 -0.007976 -0.004692  0.022089  0.254919 -0.089988  0.089736 -0.014027 -0.002064
                                 0.001436 -0.045221  0.019539 -0.019945  0.003154  0.001245  0.000248  0.003134  0.004185  0.003795
                                -0.003887 -0.006627  0.008315  0.006854  0.005289 -0.007077 -0.009574  0.000582 -0.002969 -0.001195
                                 0.000078 -0.000190  0.001164  0.001899 -0.001529 -0.000734  0.001132  0.001333  0.000911  0.001424
                                 0.001198 -0.001273 -0.000125  0.001528  0.001595 -0.000555  0.466413 -0.116589 -0.181609 -0.004641
                                -0.003580 -0.004750 -0.012509 -0.001019 -0.005248 -0.006531  0.003778 -0.000591  0.010737  0.001533
                                 0.001631  0.002252  0.000527  0.000082 -0.002637 -0.001269 -0.002990 -0.000187 -0.001296  0.485311
                                -0.121446 -0.198097 -0.002529 -0.005227  0.012821  0.004482 -0.002303  0.007639  0.004803  0.005627
                                -0.012295 -0.004382 -0.000659  0.001417 -0.001372 -0.002169 -0.001725  0.001159 -0.001557  0.002369
                                 0.002447  0.001725

   3.2   2    -0.6699   -8.8210  0.000283  0.112462 -0.000627  0.098458  0.034117 -0.036137  0.650136  0.279474  0.003116 -0.031169
                                -0.019870 -0.013730 -0.084102 -0.039802 -0.005883  0.005670 -0.003089  0.005870  0.001977  0.009574
                                 0.000515  0.006709  0.007836  0.006448  0.016203 -0.010562  0.013771 -0.000305  0.005472 -0.002309
                                -0.001788  0.004302  0.000548 -0.000101 -0.001011  0.003582 -0.000742  0.000286 -0.001463  0.001430
                                -0.000344 -0.000617  0.000277  0.003203 -0.000588  0.000363  0.509245 -0.081031 -0.168796 -0.003570
                                -0.005893  0.000568 -0.012702 -0.006171  0.009983 -0.018565  0.006324  0.008253  0.008225  0.003367
                                 0.000811  0.004514  0.000065  0.000892 -0.000212 -0.003945  0.002387 -0.001551  0.001310 -0.587856
                                 0.055899  0.181449  0.004500  0.009283 -0.012185 -0.003298  0.017514 -0.023475 -0.005386 -0.005550
                                 0.006808  0.005036  0.001360 -0.002354  0.002935  0.004964  0.002057 -0.000983  0.001472  0.000222
                                -0.000792 -0.000568

   4.2   2    -0.4141   -8.5110 -0.002842 -0.289065  0.000034 -0.268178 -0.268859 -0.051823 -0.388259  0.731925 -0.000128  0.007007
                                -0.023721  0.030318 -0.004190  0.011090  0.042844 -0.014801  0.040234  0.008149 -0.001676  0.006288
                                 0.005883 -0.000612  0.017671 -0.009072  0.014547  0.018441 -0.003308 -0.004766 -0.010404  0.011037
                                 0.005677 -0.008876  0.001119  0.002796  0.000613 -0.002569  0.001459 -0.002072  0.000156  0.001726
                                -0.001448  0.004337 -0.003471  0.001353 -0.002808 -0.002231  0.487635 -0.018547 -0.027897  0.003833
                                -0.004426 -0.008472 -0.005298 -0.010999 -0.021630 -0.008669 -0.003937 -0.016325  0.008094  0.002396
                                 0.003983  0.001495  0.001613 -0.000486 -0.001424  0.000726 -0.005536  0.000585 -0.000009 -0.066865
                                 0.045166  0.029537 -0.007943 -0.001461 -0.005003  0.007412 -0.010241 -0.004210  0.025011 -0.003515
                                -0.009169  0.009579 -0.001515  0.002380  0.001659  0.000200  0.002216  0.000935  0.003609  0.003433
                                 0.000580  0.003314

 HOMO      5.1    -0.407323 =     -11.0838eV
 LUMO      6.1     0.029650 =       0.8068eV
 LUMO-HOMO         0.436973 =      11.8906eV


 **********************************************************************************************************************************
 DATASETS  * FILE   NREC   LENGTH (MB)   RECORD NAMES
              1      19      336.96       500      610      700      900      950      970     1000      129      960     1100   
                                          VAR    BASINP    GEOM    SYMINP    ZMAT    AOBASIS   BASIS     P2S    ABASIS      S 
                                         1400     1410     1200     1210     1080     1600     1650     1300     1700   
                                           T        V       H0       H01     AOSYM     SMH    MOLCAS    ERIS     OPER   

              2       4        3.20       700     1000      520     2100   
                                         GEOM     BASIS   MCVARS     RHF  

 PROGRAMS   *        TOTAL        HF       INT
 CPU TIMES  *        12.35      4.75      7.47
 REAL TIME  *        40.34 SEC
 DISK USED  *         1.30 GB      
 **********************************************************************************************************************************

 Dump information in style MOLDEN to orbitals_1_hf.mol                                                               

 Molecular orbitals read from record     2100.2  Type=RHF/CANONICAL (state 1.1)
 Occupation numbers read from record     2100.2  Type=RHF/RHF (state 1.1)
 Orbital energies read from record       2100.2  Type=RHF/CANONICAL (state 1.1)
 Redundancy group numbers read from rec  2100.2  Type=RHF/RHF (state 1.1)
 
 DUMP ORBITAL  1.1 AS ORBITAL    1  occ=    2.0000  eig=  -15.5688  GROUP=   2
 DUMP ORBITAL  1.2 AS ORBITAL    2  occ=    2.0000  eig=  -15.5684  GROUP=   2
 DUMP ORBITAL  2.1 AS ORBITAL    3  occ=    2.0000  eig=   -1.2593  GROUP=   2
 DUMP ORBITAL  2.2 AS ORBITAL    4  occ=    2.0000  eig=   -1.0098  GROUP=   2
 DUMP ORBITAL  3.1 AS ORBITAL    5  occ=    2.0000  eig=   -0.6802  GROUP=   2
 DUMP ORBITAL  3.2 AS ORBITAL    6  occ=    2.0000  eig=   -0.6699  GROUP=   2
 DUMP ORBITAL  4.1 AS ORBITAL    7  occ=    2.0000  eig=   -0.6131  GROUP=   2
 DUMP ORBITAL  4.2 AS ORBITAL    8  occ=    2.0000  eig=   -0.4141  GROUP=   2
 DUMP ORBITAL  5.1 AS ORBITAL    9  occ=    2.0000  eig=   -0.4073  GROUP=   2

 Total charge:      18.000000

 **********************************************************************************************************************************


 PROGRAM * MULTI (Direct Multiconfiguration SCF)       Authors: P.J. Knowles, H.-J. Werner (1984)     S.T. Elbert (1988)


 Number of closed-shell orbitals:   2 (   1   1 )
 Number of active  orbitals:       12 (   6   6 )
 Number of external orbitals:     170 (  85  85 )

 State symmetry 1

 Number of electrons:    14    Spin symmetry=Singlet   Space symmetry=1
 Number of states:        1
 Number of CSFs:      85092   (313632 determinants, 627264 intermediate states)

 Molecular orbitals read from record     2100.2  Type=RHF/CANONICAL (state 1.1)

 Wavefunction dump at record             2140.2

 Convergence thresholds  0.10E-01 (gradient)  0.10E-05 (energy)  0.10E-02 (step length)

 Number of orbital rotations:     1202   (    12 Core/Active    170 Core/Virtual   0 Active/Active   1020 Active/Virtual)
 Total number of variables:     314834


 ITER. MIC  NCI  NEG     ENERGY(VAR)     ENERGY(PROJ)   ENERGY CHANGE     GRAD(0)  GRAD(ORB)   GRAD(CI)     STEP       TIME

   1   80   22    0    -111.22824300    -111.37280951   -0.14456652    0.00072114 0.00529068 0.06570182  0.19D+01     15.18
   2   37   30    0    -111.35750945    -111.36172482   -0.00421537    0.07436063 0.00000354 0.00013192  0.29D+00     36.16
   3   40   19    0    -111.36172900    -111.36172907   -0.00000006    0.00030586 0.00000169 0.00002137  0.80D-03     49.85

 ** WVFN ****  CONVERGENCE REACHED, FINAL GRADIENT:  0.28D-05


 First order charge density matrix for state 1.1 saved on record  2140.2 (density set 1)

 Results for state 1.1
 =====================

 !MCSCF STATE 1.1 Energy             -111.361729066869
 Nuclear energy                        41.78471756
 Kinetic energy                       111.41243376
 One electron energy                 -233.60673323
 Two electron energy                   80.46028660
 Virial ratio                           1.99954489

 !MCSCF STATE 1.1 Dipole moment         0.00000000     0.00000000     0.72629767
 Dipole moment /Debye                   0.00000000     0.00000000     1.84594363


 NATURAL ORBITALS
 ================

   Orb     Occ        Energy       Coefficients

                                   1 1s      1 1s      1 1s      1 1s      1 1s      1 2pz     1 2px     1 2py     1 2pz     1 2px  
                                   1 2py     1 2pz     1 2px     1 2py     1 2pz     1 2px     1 2py     1 3d0     1 3d2-    1 3d2+ 
                                   1 3d1+    1 3d1-    1 3d0     1 3d2-    1 3d2+    1 3d1+    1 3d1-    1 3d0     1 3d2-    1 3d2+ 
                                   1 3d1+    1 3d1-    1 4f0     1 4f2-    1 4f2+    1 4f1+    1 4f1-    1 4f3+    1 4f3-    1 4f0  
                                   1 4f2-    1 4f2+    1 4f1+    1 4f1-    1 4f3+    1 4f3-    2 1s      2 1s      2 1s      2 1s   
                                   2 2pz     2 2px     2 2py     2 2pz     2 2px     2 2py     2 2pz     2 2px     2 2py     2 3d0  
                                   2 3d2-    2 3d2+    2 3d1+    2 3d1-    2 3d0     2 3d2-    2 3d2+    2 3d1+    2 3d1-    3 1s   
                                   3 1s      3 1s      3 1s      3 2pz     3 2px     3 2py     3 2pz     3 2px     3 2py     3 2pz  
                                   3 2px     3 2py     3 3d0     3 3d2-    3 3d2+    3 3d1+    3 3d1-    3 3d0     3 3d2-    3 3d2+ 
                                   3 3d1+    3 3d1- 

   1.1  2.00000   -15.483138     0.997552 -0.049885  0.001966 -0.003550 -0.002987  0.027748 -0.014130 -0.025776 -0.003134  0.000945
                                 0.002854 -0.001273 -0.002196 -0.001279  0.001150 -0.001121 -0.001853  0.000040 -0.000136 -0.000084
                                -0.000258 -0.000233  0.000282 -0.000222 -0.000554 -0.001410 -0.000781 -0.000440 -0.000004  0.000645
                                -0.000844 -0.000257  0.000072  0.000066  0.000175 -0.000022  0.000154 -0.000077  0.000156 -0.000252
                                -0.000363  0.000246 -0.000508 -0.000440  0.000445  0.000346 -0.011553  0.004999  0.004274 -0.000289
                                 0.000703  0.000003 -0.000139  0.000138 -0.000106 -0.000896  0.000167 -0.000072 -0.000829 -0.000409
                                -0.000065 -0.000137 -0.000254 -0.000044  0.000065  0.000173 -0.000247  0.000258  0.000272 -0.008767
                                 0.005363  0.006639  0.000601  0.000161  0.000208 -0.000758  0.001199  0.000069 -0.000177  0.000784
                                -0.000142 -0.000136  0.000277  0.000346  0.000228 -0.000044  0.000041  0.000109 -0.000346 -0.000139
                                -0.000063  0.000379

   2.1  1.99834    -0.890681     0.060890  0.731252 -0.007757  0.045544  0.066217 -0.375078  0.177195  0.342885  0.012487  0.000958
                                -0.009043 -0.004670  0.022913  0.053962 -0.016445  0.011389  0.027196 -0.001237  0.001401  0.002200
                                 0.005430  0.005491  0.000375  0.004693  0.003114  0.017642  0.013139  0.002675 -0.013381 -0.000045
                                 0.005390  0.003291  0.001910  0.001734 -0.002240  0.001433  0.000576 -0.001190 -0.001088  0.002414
                                -0.001010 -0.000433  0.002619  0.000225  0.000939 -0.000121  0.182473 -0.073620 -0.068993  0.003470
                                -0.007264  0.001335  0.003129 -0.003424  0.008143  0.016135 -0.006049  0.005377  0.010097  0.002271
                                -0.000932  0.000123 -0.000624 -0.001621  0.001427  0.000338  0.000177 -0.001845 -0.003988  0.133911
                                -0.069879 -0.139530 -0.010424 -0.002990 -0.000878  0.007883 -0.012038  0.005854  0.007857 -0.013171
                                 0.009238 -0.003821 -0.001203  0.000093 -0.001402  0.000916 -0.001462  0.000428  0.003536 -0.003966
                                 0.000800 -0.002637

   3.1  1.98037    -0.833190    -0.006118  0.374859 -0.003976 -0.156457 -0.037454  0.641639 -0.009650 -0.198435 -0.023323 -0.009737
                                -0.003481 -0.058728 -0.014287 -0.015550  0.011864 -0.003911 -0.015069  0.005426 -0.000965  0.001276
                                -0.001961 -0.000246  0.008768 -0.003825  0.002485 -0.013355 -0.004514  0.004722  0.007375 -0.000303
                                -0.003202 -0.009761 -0.001032  0.000674  0.003959  0.001904  0.002887 -0.002764 -0.000080 -0.001344
                                -0.001476  0.002213 -0.001777 -0.001319  0.001674  0.000794  0.614008 -0.095080 -0.218731 -0.005161
                                -0.011273 -0.007623 -0.008188 -0.009572 -0.012259 -0.016446  0.021376  0.002784  0.000131  0.001741
                                 0.001748  0.000409  0.003268  0.003275 -0.005584 -0.000867 -0.000435 -0.002422 -0.001458  0.171789
                                -0.024792 -0.004617  0.007389  0.006616 -0.001375  0.001114  0.017974 -0.000064 -0.005621  0.013907
                                -0.001748 -0.003397  0.001053  0.000251  0.000576 -0.001323  0.001897  0.004409  0.002324  0.004327
                                -0.001685  0.001047

   4.1  1.97716    -0.600301     0.002787 -0.140733  0.001045  0.089676  0.036678  0.206398 -0.048602  0.695855 -0.019829  0.008642
                                -0.032777 -0.063086  0.010547 -0.041235 -0.007778  0.002848  0.022313  0.010838  0.010880  0.005740
                                 0.002629  0.000672  0.018756  0.019178  0.010945  0.002286  0.002603  0.002090  0.002073  0.002466
                                 0.002627  0.005221 -0.001980  0.000357 -0.001192 -0.000617  0.000061  0.002159 -0.000596  0.002410
                                 0.001838 -0.000552  0.003402 -0.001582  0.002636 -0.002497  0.362608 -0.040883 -0.096848 -0.000604
                                -0.008655 -0.004060  0.002875 -0.013733 -0.006423  0.013578 -0.003108  0.004783  0.010676  0.003582
                                 0.000087  0.001109  0.002651  0.000064  0.002966 -0.000737  0.002195 -0.001008 -0.003200 -0.796472
                                 0.105296  0.203002 -0.002382 -0.005154  0.009005 -0.013962 -0.006204  0.010111 -0.013611 -0.006080
                                -0.006938  0.015928  0.002688  0.004704  0.003036  0.001310 -0.002685 -0.001863 -0.002615 -0.001294
                                -0.000350  0.003226

   5.1  1.97064    -0.684053     0.002076 -0.280023  0.005667  0.109606  0.014276  0.044058  0.855193  0.046351 -0.006466 -0.026507
                                 0.003607 -0.003392 -0.101419 -0.001330 -0.000125  0.006486  0.007778  0.009506 -0.008455 -0.014727
                                 0.005110  0.002159  0.023812 -0.017275 -0.037697  0.008354  0.007679  0.015135 -0.000853 -0.022144
                                 0.005083  0.007098 -0.000444  0.001198  0.000113 -0.005788 -0.000697  0.007115  0.002118  0.004257
                                -0.002715 -0.000505 -0.002279  0.002138  0.001113  0.005920  0.268755 -0.044398 -0.095995 -0.001936
                                -0.007382  0.004194 -0.002101 -0.010270  0.021911 -0.001573  0.003896  0.011235  0.003481  0.004373
                                -0.000828 -0.002127 -0.001539  0.001992  0.002608 -0.003490 -0.001131 -0.007314 -0.000472  0.245423
                                -0.036136 -0.056248  0.000710  0.002238  0.003894  0.007289  0.002597  0.022609  0.013029  0.001279
                                 0.008662  0.006072 -0.000223  0.000868 -0.005287  0.000386  0.002058 -0.000336  0.008126 -0.003996
                                 0.002135 -0.000329

   6.1  0.02279     0.756926    -0.033150 -0.451715 -0.051692 -0.316320 -0.152207  0.241467 -0.360043  1.320243  0.046711 -0.007336
                                -0.074161  0.057920 -0.008756 -0.178293  0.025789 -0.000569 -0.000316  0.021240  0.004886  0.035839
                                -0.002954  0.010001  0.043725 -0.006765  0.060922  0.012810 -0.012729  0.013492 -0.038494  0.079915
                                 0.003210 -0.036122 -0.001109 -0.000422 -0.005667  0.007256 -0.003800  0.010442 -0.006604 -0.011790
                                -0.006632 -0.002961 -0.005837 -0.010132 -0.003216  0.027804 -0.249102 -0.073037 -0.062036 -0.017264
                                -0.002456 -0.003227 -0.003811  0.050086  0.026959 -0.032195  0.051518  0.003095  0.002657 -0.002668
                                -0.000341 -0.002570 -0.001093  0.001731 -0.024293 -0.001843 -0.014776 -0.004300  0.000540  1.175268
                                 0.383207  0.094747  0.035474  0.002667  0.011252 -0.022959  0.082311 -0.081370  0.127110  0.053432
                                -0.066748  0.068089  0.004332  0.007963  0.007847  0.001126 -0.001629 -0.001106 -0.019906 -0.015770
                                -0.013512  0.013661

   7.1  0.02166     0.714200    -0.054399 -0.777112 -0.100052 -0.261354 -0.134809 -1.153913 -0.433183 -0.051521  0.060912  0.003693
                                -0.045200  0.260213  0.053453 -0.050756 -0.010334 -0.015403 -0.023382 -0.040261  0.005744  0.013461
                                -0.003094  0.004798 -0.073364 -0.015492  0.017712 -0.039403 -0.029622 -0.026598  0.004060  0.010400
                                -0.027005 -0.040328 -0.010507 -0.000270  0.002294 -0.007315 -0.007744 -0.003838 -0.002219 -0.013094
                                -0.003578  0.002463 -0.008327 -0.018672  0.004444  0.010131  1.251350  0.332566 -0.072548  0.020640
                                 0.023829  0.009999 -0.001698 -0.130503 -0.083613 -0.099704 -0.072119 -0.035323 -0.041265 -0.010981
                                -0.002338 -0.003035 -0.008294 -0.002773  0.006260  0.011398 -0.001357  0.021804  0.021626  0.196954
                                 0.026126 -0.063168 -0.001206  0.003682  0.001544 -0.005519  0.054516  0.015135 -0.009360  0.017717
                                 0.006477 -0.014338  0.005114  0.005256  0.004363  0.000142  0.001658  0.018034  0.010337  0.010726
                                -0.005282  0.008700

                                   1 1s      1 1s      1 1s      1 1s      1 1s      1 2px     1 2py     1 2pz     1 2px     1 2py  
                                   1 2pz     1 2px     1 2py     1 2pz     1 2px     1 2py     1 2pz     1 3d1+    1 3d1-    1 3d0  
                                   1 3d2-    1 3d2+    1 3d1+    1 3d1-    1 3d0     1 3d2-    1 3d2+    1 3d1+    1 3d1-    1 3d0  
                                   1 3d2-    1 3d2+    1 4f1+    1 4f1-    1 4f3+    1 4f3-    1 4f0     1 4f2-    1 4f2+    1 4f1+ 
                                   1 4f1-    1 4f3+    1 4f3-    1 4f0     1 4f2-    1 4f2+    2 1s      2 1s      2 1s      2 1s   
                                   2 2px     2 2py     2 2pz     2 2px     2 2py     2 2pz     2 2px     2 2py     2 2pz     2 3d1+ 
                                   2 3d1-    2 3d0     2 3d2-    2 3d2+    2 3d1+    2 3d1-    2 3d0     2 3d2-    2 3d2+    3 1s   
                                   3 1s      3 1s      3 1s      3 2px     3 2py     3 2pz     3 2px     3 2py     3 2pz     3 2px  
                                   3 2py     3 2pz     3 3d1+    3 3d1-    3 3d0     3 3d2-    3 3d2+    3 3d1+    3 3d1-    3 3d0  
                                   3 3d2-    3 3d2+ 

   1.2  2.00000   -15.519225     0.998154 -0.035978  0.002301 -0.019546 -0.013875 -0.011390 -0.020857  0.019231  0.004898  0.003286
                                -0.002871  0.008092  0.003039 -0.002226  0.002765 -0.000338  0.001541  0.000146 -0.000006  0.000051
                                 0.000142 -0.000060  0.000258 -0.000873  0.000963  0.000522 -0.001643  0.000987 -0.000413  0.000596
                                 0.000237 -0.000919  0.000081  0.000236 -0.000079 -0.000046  0.000199  0.000113  0.000072 -0.000671
                                -0.000399  0.000854 -0.000147 -0.000326 -0.000520 -0.000569 -0.004654  0.005641  0.005379 -0.000093
                                 0.000147 -0.000031  0.000631 -0.000260 -0.000998  0.000098 -0.000273 -0.000668  0.000393 -0.000268
                                -0.000092 -0.000477  0.000015  0.000046 -0.000066  0.000229 -0.000063  0.000021 -0.000220 -0.008043
                                 0.004951  0.004045 -0.000386  0.000087 -0.000630  0.000035 -0.000615 -0.000291  0.000537 -0.000077
                                -0.000190  0.000119  0.000032 -0.000111  0.000242  0.000302  0.000421 -0.000080  0.000035  0.000121
                                -0.000016  0.000052

   2.2  1.99755    -0.714512    -0.042589 -0.750671  0.005849 -0.223209 -0.216768 -0.185343 -0.404578  0.367437  0.007161  0.014753
                                -0.010461  0.056665  0.009051  0.032816  0.030559 -0.013126  0.029164  0.001878 -0.004651 -0.000742
                                 0.006543  0.001705  0.004531 -0.012651  0.002344  0.020413 -0.000615 -0.003336 -0.006897  0.009775
                                 0.004038 -0.008186 -0.000032  0.000794  0.001589 -0.002369  0.000543 -0.002308 -0.000031 -0.000077
                                -0.001676  0.003982 -0.002524 -0.001018 -0.002771 -0.001189 -0.103503  0.087529  0.151011  0.007170
                                 0.001039 -0.002974  0.008241 -0.004846 -0.014376  0.004531 -0.006518 -0.013666 -0.002356 -0.000349
                                 0.001430 -0.001789  0.000734 -0.000652  0.000654  0.002392 -0.002718  0.000945  0.000430 -0.185348
                                 0.093907  0.096311 -0.005215 -0.000369 -0.008183  0.003228 -0.010710 -0.001360  0.015769 -0.004168
                                -0.001128  0.008046 -0.001014  0.001414  0.001177  0.000086  0.002071  0.000189  0.003023  0.000877
                                -0.000869  0.001449

   3.2  1.97980    -0.780075     0.003923 -0.336311  0.002239  0.146419  0.088681 -0.176228  0.644778 -0.052257  0.012394 -0.028024
                                -0.007988  0.013445 -0.079105 -0.021064 -0.018408  0.006436 -0.013847 -0.000162 -0.000577  0.003051
                                 0.001237  0.009712 -0.004227  0.002140  0.004768 -0.007683  0.016940  0.000650  0.008781 -0.003707
                                -0.002718  0.005749 -0.000603 -0.002099  0.000258  0.003574 -0.001727 -0.000174 -0.001715 -0.000425
                                -0.000758 -0.000453  0.001158  0.000945 -0.000753  0.001020 -0.062242  0.020572 -0.001110 -0.000325
                                -0.000876  0.005594 -0.000088 -0.001257  0.015844 -0.008124  0.002661  0.011041 -0.004077  0.000869
                                -0.001397  0.001484 -0.000661  0.000723  0.001945 -0.002057  0.005138 -0.001036  0.001782 -0.722313
                                 0.109528  0.246764  0.006493  0.009715 -0.014208 -0.006985  0.013646 -0.013854 -0.012846 -0.007133
                                 0.017567  0.003381  0.001658 -0.002977  0.002338  0.004531  0.001753 -0.001967  0.001644 -0.002800
                                -0.003072 -0.002900

   4.2  1.97674    -0.617096    -0.003526  0.220084 -0.001692 -0.116646 -0.148595  0.057073  0.116528  0.699764 -0.004869 -0.016226
                                -0.031661 -0.010290 -0.050285 -0.034708  0.026172 -0.006062  0.023185  0.010033  0.001770  0.012381
                                 0.002344  0.001049  0.019266  0.001530  0.022218  0.002686  0.002455 -0.003255 -0.004709  0.005484
                                 0.002685 -0.002948  0.001698  0.002659 -0.000831  0.000210  0.001107 -0.000522 -0.000436  0.002864
                                -0.000468  0.001840 -0.001982  0.003308 -0.001341 -0.000921  0.843482 -0.117107 -0.198349 -0.001226
                                -0.007407 -0.006871 -0.015181 -0.008398 -0.008915 -0.011930  0.004124 -0.006438  0.018554  0.003957
                                 0.003483  0.004386  0.001171  0.000201 -0.002821 -0.003107 -0.004168 -0.000919  0.000038 -0.200841
                                 0.012514  0.047672 -0.003528  0.002433 -0.005117  0.004647  0.002841 -0.012838  0.014714 -0.003324
                                -0.007164  0.007398 -0.000404  0.000678  0.002248  0.002223  0.001918  0.000475  0.002529  0.003275
                                 0.000829  0.002369

   5.2  0.03136     0.642425    -0.052890 -0.987157 -0.074595 -0.597169 -0.429606  1.290001  0.298974 -0.324719  0.070540 -0.021129
                                 0.027385  0.124835 -0.029262  0.018259  0.110335  0.006419  0.003459  0.015913  0.008165  0.003273
                                -0.011135 -0.008802  0.033591  0.012416  0.071599 -0.028723 -0.129888  0.018268 -0.006545  0.041478
                                -0.008671 -0.090122 -0.012299 -0.001508  0.014776  0.004358  0.000055  0.001256 -0.000895 -0.026926
                                -0.003838  0.032550  0.009190  0.013201 -0.006548 -0.020968  0.343708  0.067445 -0.077016 -0.015643
                                 0.005627 -0.000784  0.001075  0.002888 -0.025330 -0.016511  0.008409 -0.009143  0.014330 -0.005000
                                 0.000814 -0.002115  0.000213  0.001670 -0.012054  0.000271 -0.005588 -0.002391 -0.008928  0.186556
                                 0.021448 -0.119066 -0.018075  0.004299  0.000662  0.001351 -0.003503 -0.000589  0.017708  0.020031
                                -0.022199 -0.006701 -0.000125  0.000715  0.000764  0.003902  0.001531  0.002280 -0.001539  0.011054
                                 0.005357  0.003840

   6.2  0.02279     0.766781    -0.023336 -0.268374 -0.033121 -0.219593 -0.361000 -0.576502 -0.214718 -1.299604 -0.028842 -0.050158
                                 0.073801 -0.014973 -0.065730  0.206885  0.054079 -0.018214  0.011657 -0.003095  0.007544 -0.041080
                                 0.003732  0.003262  0.013582 -0.021344 -0.092964 -0.000346  0.029942  0.038794 -0.028269 -0.069668
                                -0.004511  0.028209 -0.004964 -0.006774 -0.005550 -0.000042 -0.010028 -0.000021  0.002273  0.012771
                                -0.009549 -0.005276 -0.010116  0.006637 -0.008883 -0.022357  1.160582  0.364204  0.148395  0.026880
                                 0.008044 -0.000781  0.025770 -0.069933 -0.090053 -0.116572 -0.077949 -0.066788 -0.076691 -0.005852
                                -0.002660 -0.010515 -0.000930  0.000224  0.018212  0.019287  0.013994  0.012214 -0.007006 -0.143799
                                -0.030532 -0.012609 -0.016678 -0.003186  0.000755  0.003537  0.002249 -0.035901  0.033774 -0.017418
                                -0.027241 -0.002720 -0.000148  0.001141  0.003573  0.000350  0.001560  0.003978  0.004454  0.016973
                                 0.007935  0.011161

   7.2  0.02081     0.756045     0.040224  0.545760  0.072609  0.363329  0.342032  0.649427 -1.179228 -0.113974  0.006056  0.068530
                                -0.039969 -0.162003  0.250779 -0.031279 -0.052303 -0.018823 -0.048847  0.005236 -0.007545 -0.015867
                                -0.011134 -0.038125 -0.021737  0.018420 -0.033577 -0.062622 -0.076483 -0.031508  0.031008 -0.037269
                                -0.050637 -0.028691 -0.006649  0.004738 -0.010008  0.008842  0.003819  0.002616  0.004933 -0.005635
                                 0.007837  0.000159  0.017643  0.002710  0.001761  0.016733 -0.049703  0.020667  0.041486  0.012433
                                -0.000418  0.004028 -0.002630 -0.009476  0.046717 -0.023918  0.027228  0.017737 -0.021742  0.002165
                                -0.001757  0.005195  0.000405  0.001190  0.011127 -0.009433  0.020522 -0.000496  0.009476 -1.294391
                                -0.365590  0.036256 -0.018040 -0.009148  0.022224 -0.004088  0.112693 -0.135685 -0.100733  0.046270
                                -0.085638 -0.032792 -0.000595  0.001368 -0.008513 -0.008323 -0.006441  0.011592 -0.020405  0.004116
                                 0.033747  0.009462
 

 Natural orbital dump at molpro section  2140.2    (Orbital set 2)


 CI vector
 =========

 222200 222000      0.9705156
 222000 222200     -0.0837712

 TOTAL ENERGIES                      -111.36172907



 **********************************************************************************************************************************
 DATASETS  * FILE   NREC   LENGTH (MB)   RECORD NAMES
              1      20      358.60       500      610      700      900      950      970     1000      129      960     1100   
                                          VAR    BASINP    GEOM    SYMINP    ZMAT    AOBASIS   BASIS     P2S    ABASIS      S 
                                         1400     1410     1200     1210     1080     1600     1650     1300     1700     1380   
                                           T        V       H0       H01     AOSYM     SMH    MOLCAS    ERIS     OPER     JKOP   

              2       5        6.44       700     1000      520     2100     2140   
                                         GEOM     BASIS   MCVARS     RHF     MCSCF   

 PROGRAMS   *        TOTAL     MULTI        HF       INT
 CPU TIMES  *        75.29     62.81      4.75      7.47
 REAL TIME  *       106.70 SEC
 DISK USED  *         1.30 GB      
 **********************************************************************************************************************************


 PROGRAM * CI (Multireference internally contracted CI)     Authors: H.-J. Werner, P.J. Knowles, 1987


 Convergence thresholds:  THRVAR = 1.00D-08  THRDEN = 1.00D-06

 Number of optimized states:  1  Roots:   1
 Number of reference states:  1  Roots:   1

 Reference symmetry:                   1   Singlet 
 Number of electrons:                 18
 Maximum number of shells:             8
 Maximum number of spin couplings:   429

 Reference space:    29202 conf    85092 CSFs
 N elec internal:    58278 conf   169884 CSFs
 N-1 el internal:    69576 conf   339768 CSFs
 N-2 el internal:    73789 conf   608751 CSFs

 Number of electrons in valence space:                     14
 Maximum number of open shell orbitals in reference space: 10
 Maximum number of open shell orbitals in internal spaces: 14


 Number of core orbitals:           2 (   1   1 )
 Number of active  orbitals:       12 (   6   6 )
 Number of external orbitals:     170 (  85  85 )

 Molecular orbitals read from record     2140.2  Type=MCSCF/NATURAL (state 1.1)

 Coulomb and exchange operators available. No transformation done.

 Number of p-space configurations:   1

 Reference wavefunction optimized for reference space (refopt=1)

 State     Reference Energy 
   1        -111.36172907

 Number of blocks in overlap matrix:     4   Smallest eigenvalue:  0.20D-02
 Number of N-2 electron functions:     144
 Number of N-1 electron functions:  339768

 Number of internal configurations:                85092
 Number of singly external configurations:      28880280
 Number of doubly external configurations:       1041420
 Total number of contracted configurations:     30006792
 Total number of uncontracted configurations: 4420599512

 Diagonal Coupling coefficients finished.               Storage:37824290 words, CPU-Time:    182.45 seconds.
 Energy denominators for pairs finished in 1 passes.    Storage: 4651302 words, CPU-time:      0.04 seconds.

  ITER. STATE  ROOT     SQ.NORM     CORR.ENERGY   TOTAL ENERGY   ENERGY CHANGE       DEN1      VAR(S)    VAR(P)      TIME
    1     1     1     1.00000000     0.00000000  -111.36172907     0.00000000    -0.29420594  0.32D-01  0.33D-01   229.56
    2     1     1     1.07049611    -0.30548326  -111.66721233    -0.30548326    -0.01158808  0.15D-02  0.12D-02  1372.57
    3     1     1     1.07613553    -0.31756184  -111.67929091    -0.01207858    -0.00094616  0.14D-03  0.89D-04  2517.64
    4     1     1     1.07900883    -0.31860896  -111.68033803    -0.00104712    -0.00011548  0.22D-04  0.91D-05  3693.41
    5     1     1     1.07980819    -0.31873337  -111.68046243    -0.00012441    -0.00001513  0.31D-05  0.11D-05  4847.23
    6     1     1     1.07992689    -0.31875018  -111.68047924    -0.00001681    -0.00000245  0.53D-06  0.15D-06  6018.74
    7     1     1     1.07994376    -0.31875288  -111.68048194    -0.00000270    -0.00000044  0.98D-07  0.25D-07  7162.92
    8     1     1     1.07996071    -0.31875335  -111.68048242    -0.00000048    -0.00000009  0.19D-07  0.50D-08  8346.49
    9     1     1     1.07997061    -0.31875345  -111.68048252    -0.00000010    -0.00000002  0.36D-08  0.92D-09  9599.42


 =====================================
 Analysis of CPU times by interactions
 =====================================

       I      S      P

 I   0.5%
 S   0.9%   9.1%
 P   2.7%  74.5%   9.8%

 Initialization:   2.1%
 Other:            0.4%

 Total CPU:     9599.4 seconds
 =====================================



 Reference coefficients greater than 0.0500000
 =============================================
 222200222000           0.9373617
 222000222200          -0.0755253
 22/2/02\200\           0.0545580



 RESULTS FOR STATE 1.1
 =====================

 Coefficient of reference function:   C(0) = 0.96195400 (fixed)   0.96226354 (relaxed)

 Energy contributions of configuration classes

 CLASS          SQ.NORM        ECORR1        ECORR2
 +++++++++++++++++++++++++++++++++++++++++++++++++++
 Internals    0.00064368   -0.00000001   -0.00018997
 Singles      0.03419495   -0.10821557   -0.11022440
 Pairs        0.04582714   -0.21053776   -0.20833908
 Total        1.08066576   -0.31875334   -0.31875345
 +++++++++++++++++++++++++++++++++++++++++++++++++++


 Reference energy                    -111.36172907
 Nuclear energy                        41.78471756
 Kinetic energy                       111.62870721
 One electron energy                 -233.37114277
 Two electron energy                   79.90594269
 Virial quotient                       -1.00046382
 Correlation energy                    -0.31875345
 !MRCI STATE 1.1 Energy              -111.680482516555

 Properties without orbital relaxation:

 !MRCI STATE 1.1 Dipole moment          0.00000000     0.00000000     0.73462279
 Dipole moment /Debye                   0.00000000     0.00000000     1.86710260

 Cluster corrected energies          -111.70384836 (Pople, fixed reference)
 Cluster corrected energies          -111.70363518 (Pople, relaxed reference)



 **********************************************************************************************************************************
 DATASETS  * FILE   NREC   LENGTH (MB)   RECORD NAMES
              1      20      358.60       500      610      700      900      950      970     1000      129      960     1100   
                                          VAR    BASINP    GEOM    SYMINP    ZMAT    AOBASIS   BASIS     P2S    ABASIS      S 
                                         1400     1410     1200     1210     1080     1600     1650     1300     1700     1380   
                                           T        V       H0       H01     AOSYM     SMH    MOLCAS    ERIS     OPER     JKOP   

              2       5        6.44       700     1000      520     2100     2140   
                                         GEOM     BASIS   MCVARS     RHF     MCSCF   

 PROGRAMS   *        TOTAL      MRCI     MULTI        HF       INT
 CPU TIMES  *      9759.63   9684.34     62.81      4.75      7.47
 REAL TIME  *     10219.52 SEC
 DISK USED  *         5.19 GB      
 **********************************************************************************************************************************
                                                  

 MRCI/aug-cc-pVTZ energy=   -111.680482516555

        MRCI            MULTI           HF-SCF  
   -111.68048252   -111.36172907   -111.22812175
 **********************************************************************************************************************************
 Molpro calculation terminated
 Variable memory released
