
 Primary working directories    : /scratch/alongd/a29865-21244
 Secondary working directories  : /scratch/alongd/a29865-21244
 Wavefunction directory         : /home/alongd/wfu/
 Main file repository           : /scratch/alongd/a29865-21244/

 SHA1      : 5e3d8ac6839c721e2824de82269b4736200146bd
 NAME      : 2015.1.37
 ARCHNAME  : linux/x86_64
 FC        : /opt/intel/composer_xe_2015.1.133/bin/intel64/ifort
 BLASLIB   : -Wl,-_start-group /opt/intel/mkl/lib/intel64/libmkl_intel_ilp64.a /opt/intel/mkl/lib/intel64/libmkl_intel_thread.a /opt/intel/mkl/lib/intel64/libmkl_core.a -Wl,-_end-group
 id        : phalgunlolur

 Nodes     nprocs
 node06       8

 Using customized tuning parameters: mindgm=1; mindgv=20; mindgc=4; mindgr=1; noblas=0; minvec=7
 default implementation of scratch files=sf  

 ***,name
 memory,224,m;
 geometry={angstrom;
 I       0.00000000    0.00000000    0.00000000}
 
 basis=6-311g**
 
 int;
 
 {hf;
 maxit,1000;
 wf,spin=1,charge=0;}
 
 uccsd(t);
 
 

 Variables initialized (889), CPU time= 0.01 sec
 Commands  initialized (702), CPU time= 0.02 sec, 572 directives.
 Default parameters read. Elapsed time= 0.13 sec

 Checking input...
 Passed
1


                                         ***  PROGRAM SYSTEM MOLPRO  ***
                                       Copyright, TTI GmbH Stuttgart, 2015
                                    Version 2015.1 linked Aug 10 2018 15:00:15


 **********************************************************************************************************************************
 LABEL *   name                                                                          
  64 bit mpp version                                                                     DATE: 05-Nov-19          TIME: 09:45:03  
 **********************************************************************************************************************************

 SHA1:             5e3d8ac6839c721e2824de82269b4736200146bd
 **********************************************************************************************************************************

Geometry recognized as XYZ


 Variable memory set to  224000000 words,  buffer space   230000 words

 SETTING BASIS          =    6-311G**


 Using spherical harmonics

 LIBRARY EXHAUSTED
  Searching for I  S 6-311G              
  Library contains the following bases:
 ? Error
 ? Basis library exhausted
 ? The problem occurs in Binput
