
Running Job 1 of 2 c5h11o-1.in
qchem c5h11o-1.in_7641.0 /tmp/qchem7641/ 4
/opt/qchem/bin/mpi/mpirun_qchem -machinefile /tmp/281059.1.normal3/hostfile -np 4 /opt/qchem/exe/qcprog.exe c5h11o-1.in_7641.0 /tmp/qchem7641/

Process 0 of 4 is on node65.cluster - thread support 0
Process 1 of 4 is on node65.cluster - thread support 0
Process 3 of 4 is on node65.cluster - thread support 0
Process 2 of 4 is on node65.cluster - thread support 0
initial socket setup ...start
initial socket setup ...done 
now start server 0 ... 
                  Welcome to Q-Chem
     A Quantum Leap Into The Future Of Chemistry

 Y. Shao, L. Fusti-Molnar, Y. Jung, J. Kussmann, C. Ochsenfeld, S. T. Brown, 
 A. T. B. Gilbert, L. V. Slipchenko, S. V. Levchenko, D. P. O'Neill, 
 R. A. DiStasio Jr., R. C. Lochan, T. Wang, G. J. O. Beran, N. A. Besley, 
 J. M. Herbert, C. Y. Lin, T. Van Voorhis, S. H. Chien, A. Sodt, R. P. Steele, 
 V. A. Rassolov, P. E. Maslen, P. P. Korambath, R. D. Adamson, B. Austin, 
 J. Baker, E. F. C. Byrd, H. Dachsel, R. J. Doerksen, A. Dreuw, B. D. Dunietz, 
 A. D. Dutoi, T. R. Furlani, S. R. Gwaltney, A. Heyden, S. Hirata, C.-P. Hsu, 
 G. Kedziora, R. Z. Khaliullin, P. Klunzinger, A. M. Lee, M. S. Lee, W. Liang, 
 I. Lotan, N. Nair, B. Peters, E. I. Proynov, P. A. Pieniazek, Y. M. Rhee, 
 J. Ritchie, E. Rosta, C. D. Sherrill, A. C. Simmonett, J. E. Subotnik, 
 H. L. Woodcock III, W. Zhang, A. T. Bell, A. K. Chakraborty, D. M. Chipman, 
 F. J. Keil, A. Warshel, W. J. Hehre, H. F. Schaefer III, J. Kong, 
 A. I. Krylov, P. M. W. Gill, M. Head-Gordon

 Additional authors for Version 3.1: 
 Z. Gan, Y. Zhao, N. E. SchultzD. Truhlar, E. Epifanovsky, M. Oana

 Additional authors for Version 3.2: 
 R. Baer, B. R. Brooks, D. Casanova, J.-D. Chai, C.-L. Cheng, C. Cramer, 
 D. Crittenden, A. Ghysels, G. Hawkins, E. G. Hohenstein, C. Kelley, 
 W. Kurlancheek, D. Liotard, E. Livshits, P. Manohar, A. Marenich, 
 D. Neuhauser, R. Olson, M. A. Rohrdanz, K. S. Thanthiriwatte, A. J. W. Thom, 
 V. Vanovschi, C. F. Williams, Q. Wu, Z.-Q. You

 Additional authors for Version 4.0: 
 A. Aspuru-Guzik, Y. Bernard, C. Chang, J. Deng, A. Dreuw, M. Diedenhofen, 
 R. G. Edgar, D. Ghosh, W. A. Goddard III, M. Goldey, L. D. Jacobson, 
 M. Gordon, B. Kaduk, I. Kaliman, K. Khistyaev, R. King, A. Klamt, 
 D. Kosenkov, T. Kus, D. Lambrecht, A. Landau, A. W. Lange, K. Lawler, F. Liu, 
 J. Liu, R. Olivares-Amaya, S. P. Mao, J. Parkhill, N. Russ, M. Schmidt, 
 N. Shenvi, D. Small, Y. C. Su, E. Sundstrom, L. Vogt, O. Vydrov, M. Watson, 
 M. Wormit, X. Xu, S. Yeganeh, I. Y. Zhang, D. Zuev

 Additional authors for Version 4.1: 
 X. Feng, M. W. D. Hanson-Heine, P. Horn, H. Ji, A. Laurent, R. Peverati, 
 N. Mardirossian, N. Sergueev, S. Sharada, P. Zimmerman


 Q-Chem, Version 4.1, Q-Chem, Inc., Pittsburgh, PA (2013).

 Intel X86 Linux Version 4.1.0.1 

 Q-chem begins on Wed Apr  9 11:09:32 2014  

Host: 
0

     Scratch files written to /tmp/qchem7641.0//
 Oct1213 14483_epif 4150   
 Parallel job on  4  processors
Processing $rem in /opt/qchem/config/preferences.
 MEM_TOTAL  2000 
Warning: disabling incdft.
 Q-Chem warning in module /home/scratch/svnadmin/14483_epif/qchem/forms1/BasisType.C, line 1125:

 Setting pure/cartesian flag to 2111 for general basis


Finally everything over in PARseQInput

--------------------------------------------------------------
User input:
--------------------------------------------------------------
$rem
XC_GRID 000075000434
JOBTYPE opt
EXCHANGE M08SO
BASIS gen
GUI=2
UNRESTRICTED TRUE
CORRELATION NONE
$end

$comment
c5h11o-2
$end

$molecule
read c5h11o-1MG3S.out
$end

$basis
H  0
S  3 1.00
3.386500000000E+01 2.549380000000E-02
5.094790000000E+00 1.903730000000E-01
1.158790000000E+00 8.521610000000E-01
S  1 1.00
3.258400000000E-01 1.000000000000E+00
S  1 1.00
1.027410000000E-01 1.000000000000E+00
S  1 1.00
3.600000000000E-02 1.000000000000E+00
P  1 1.00
1.500000000000E+00 1.000000000000E+00
P  1 1.00
3.750000000000E-01 1.000000000000E+00
****
C 0
S  6 1.00
4.563240000000E+03 1.966650000000E-03
6.820240000000E+02 1.523060000000E-02
1.549730000000E+02 7.612690000000E-02
4.445530000000E+01 2.608010000000E-01
1.302900000000E+01 6.164620000000E-01
1.827730000000E+00 2.210060000000E-01
S  3 1.00
2.096420000000E+01 1.146600000000E-01
4.803310000000E+00 9.199990000000E-01
1.459330000000E+00 -3.030680000000E-03
S  1 1.00
4.834560000000E-01 1.000000000000E+00
S  1 1.00
1.455850000000E-01 1.000000000000E+00
S  1 1.00
4.380000000000E-02 1.000000000000E+00
P  3 1.00
2.096420000000E+01 4.024870000000E-02
4.803310000000E+00 2.375940000000E-01
1.459330000000E+00 8.158540000000E-01
P  1 1.00
4.834560000000E-01 1.000000000000E+00
P  1 1.00
1.455850000000E-01 1.000000000000E+00
P  1 1.00
4.380000000000E-02 1.000000000000E+00
D  1 1.00
1.252000000000E+00 1.000000000000E+00
D  1 1.00
3.130000000000E-01 1.000000000000E+00
F  1 1.00
8.000000000000E-01 1.000000000000E+00
****
O  0
S  6 1.00
8.588500000000E+03 1.895150000000E-03
1.297230000000E+03 1.438590000000E-02
2.992960000000E+02 7.073200000000E-02
8.737710000000E+01 2.400010000000E-01
2.567890000000E+01 5.947970000000E-01
3.740040000000E+00 2.808020000000E-01
S  3 1.00
4.211750000000E+01 1.138890000000E-01
9.628370000000E+00 9.208110000000E-01
2.853320000000E+00 -3.274470000000E-03
S  1 1.00
9.056610000000E-01 1.000000000000E+00
S  1 1.00
2.556110000000E-01 1.000000000000E+00
S  1 1.00
8.450000000000E-02 1.000000000000E+00
P  3 1.00
4.211750000000E+01 3.651140000000E-02
9.628370000000E+00 2.371530000000E-01
2.853320000000E+00 8.197020000000E-01
P  1 1.00
9.056610000000E-01 1.000000000000E+00
P  1 1.00
2.556110000000E-01 1.000000000000E+00
P  1 1.00
8.450000000000E-02 1.000000000000E+00
D  1 1.00
2.584000000000E+00 1.000000000000E+00
D  1 1.00
6.460000000000E-01 1.000000000000E+00
F  1 1.00
1.400000000000E+00 1.000000000000E+00
****
$end

--------------------------------------------------------------
 ----------------------------------------------------
       Standard Nuclear Orientation (Angstroms)
    I     Atom         X            Y            Z
 ----------------------------------------------------
    1      C      -0.861098     0.016185    -0.352979
    2      H      -0.820527     0.125477    -1.447686
    3      C      -0.623007    -1.454596    -0.008320
    4      H      -1.406749    -2.085610    -0.440076
    5      H       0.343533    -1.812752    -0.380361
    6      H      -0.629225    -1.598745     1.078835
    7      C      -2.243500     0.468255     0.120123
    8      H      -3.032837    -0.154734    -0.312637
    9      H      -2.440237     1.508899    -0.158809
   10      H      -2.318459     0.391767     1.211885
   11      C       0.223411     0.919993     0.244464
   12      H      -0.001678     1.967443     0.003585
   13      H       0.225041     0.826431     1.339147
   14      C       1.626204     0.596184    -0.272014
   15      H       1.663542     0.591515    -1.374822
   16      H       2.331612     1.384124     0.061619
   17      O       2.169240    -0.552492     0.253959
 ----------------------------------------------------
 Molecular Point Group                 C1    NOp =  1
 Largest Abelian Subgroup              C1    NOp =  1
 Nuclear Repulsion Energy =   249.7439928393 hartrees
 There are       25 alpha and       24 beta electrons
 Requested basis set is non-standard
 There are 138 shells and 314 basis functions

Total QAlloc Memory Limit   2000 MB
Mega-Array Size        61 MB
MEM_STATIC part        62 MB
 A cutoff of  1.0D-11 yielded   9075 shell pairs
 There are     46807 function pairs (     56251 Cartesian)
 Smallest overlap matrix eigenvalue = 1.36E-05

  Scale SEOQF with 1.000000e-01/1.000000e-01/1.000000e-01

 Standard Electronic Orientation quadrupole field applied
 Nucleus-field energy     =     0.0000000063 hartrees
 Guess MOs from core Hamiltonian diagonalization
 An unrestricted hybrid HF-DFT SCF calculation will be
 performed using Pulay DIIS extrapolation
 Exchange:     0.5679 Hartree-Fock + 1.0000 M08SO
 SCF converges when DIIS error is below 1.0E-08
 ---------------------------------------
  Cycle       Energy         DIIS Error
 ---------------------------------------
    1    -191.1898248716      9.16E-02
    2    -152.6810142900      5.94E-02
    3    -191.3915843978      5.81E-02
    4    -218.9241553251      5.14E-02
    5    -248.2094227756      3.26E-02
    6    -271.3038572045      7.51E-03
    7    -271.8370835754      5.59E-03
    8    -272.1604213329      1.65E-03
    9    -272.1913732464      5.93E-04
   10    -272.1962483161      1.38E-04
   11    -272.1969306008      5.68E-05
   12    -272.1971511304      2.75E-05
   13    -272.1972087975      1.26E-05
   14    -272.1972244959      6.82E-06
   15    -272.1972353311      6.04E-06
   16    -272.1972507297      5.76E-06
   17    -272.1972963676      4.92E-06
   18    -272.1973636838      4.44E-06
   19    -272.1973700031      3.64E-06
   20    -272.1974006781      2.29E-06
   21    -272.1974028761      3.89E-07
   22    -272.1974031428      5.87E-07
   23    -272.1974031573      6.55E-08
   24    -272.1974031597      1.46E-07
   25    -272.1974031605      4.80E-08
   26    -272.1974031606      2.20E-08
   27    -272.1974031604      9.99E-09 Convergence criterion met
 ---------------------------------------
 <S^2> = 0.7537
 SCF time:  CPU 2673.61 s  wall 2692.62 s
 SCF   energy in the final basis set = -272.1974031604
 Total energy in the final basis set = -272.1974031604
 Analysis of SCF Wavefunction
 
 --------------------------------------------------------------
                    Orbital Energies (a.u.)
 --------------------------------------------------------------
 
 Alpha MOs
 -- Occupied --
-19.610 -10.554 -10.504 -10.501 -10.486 -10.481  -1.145  -0.918
 -0.826  -0.778  -0.713  -0.651  -0.584  -0.558  -0.540  -0.509
 -0.498  -0.465  -0.456  -0.449  -0.435  -0.402  -0.394  -0.377
 -0.364
 -- Virtual --
 -0.026  -0.013  -0.011  -0.005   0.013   0.014   0.019   0.022
  0.030   0.047   0.052   0.058   0.068   0.077   0.085   0.086
  0.103   0.112   0.121   0.125   0.125   0.129   0.132   0.143
  0.145   0.150   0.153   0.166   0.167   0.177   0.189   0.202
  0.209   0.217   0.220   0.230   0.249   0.250   0.254   0.262
  0.285   0.298   0.302   0.305   0.311   0.320   0.329   0.338
  0.349   0.373   0.393   0.426   0.447   0.462   0.475   0.478
  0.496   0.516   0.535   0.544   0.554   0.568   0.572   0.575
  0.578   0.582   0.593   0.601   0.606   0.618   0.630   0.638
  0.650   0.655   0.663   0.688   0.693   0.701   0.714   0.743
  0.764   0.772   0.796   0.828   0.847   0.878   0.898   0.911
  0.941   0.950   0.970   0.997   1.010   1.036   1.049   1.067
  1.072   1.085   1.107   1.120   1.128   1.141   1.153   1.163
  1.173   1.190   1.212   1.219   1.233   1.252   1.256   1.272
  1.287   1.302   1.319   1.329   1.343   1.356   1.364   1.379
  1.387   1.394   1.410   1.421   1.438   1.463   1.467   1.486
  1.497   1.507   1.519   1.544   1.566   1.573   1.581   1.614
  1.617   1.627   1.661   1.682   1.715   1.734   1.762   1.776
  1.812   1.864   2.120   2.144   2.348   2.392   2.432   2.493
  2.519   2.548   2.555   2.575   2.625   2.686   2.694   2.729
  2.738   2.754   2.797   2.832   2.847   2.856   2.873   2.920
  2.927   2.933   2.956   2.970   2.983   3.033   3.051   3.074
  3.094   3.122   3.139   3.172   3.190   3.222   3.231   3.258
  3.284   3.311   3.333   3.357   3.366   3.367   3.413   3.419
  3.434   3.444   3.459   3.468   3.504   3.519   3.541   3.554
  3.585   3.594   3.617   3.650   3.674   3.696   3.712   3.735
  3.748   3.755   3.762   3.787   3.825   3.836   3.885   3.914
  3.935   3.953   3.962   3.968   3.984   3.996   4.036   4.046
  4.063   4.091   4.131   4.138   4.164   4.179   4.188   4.198
  4.218   4.229   4.233   4.278   4.282   4.326   4.344   4.364
  4.396   4.401   4.432   4.476   4.488   4.506   4.535   4.543
  4.580   4.585   4.641   4.669   4.692   4.727   4.758   4.845
  4.959   4.993   5.081   5.141   5.200   5.202   5.263   5.295
  5.351   5.398   5.409   5.479   5.508   5.560   5.623   5.641
  5.652   5.670   5.675   5.849   5.894   6.602   6.795   6.833
  7.187   7.232   7.528  24.061  24.154  24.196  24.257  24.290
 49.735
 
 Beta MOs
 -- Occupied --
-19.586 -10.555 -10.504 -10.500 -10.486 -10.481  -1.092  -0.916
 -0.817  -0.778  -0.699  -0.649  -0.552  -0.544  -0.534  -0.498
 -0.482  -0.461  -0.454  -0.437  -0.407  -0.397  -0.392  -0.345
 -- Virtual --
 -0.091  -0.027  -0.015  -0.011  -0.005   0.012   0.015   0.019
  0.023   0.031   0.046   0.052   0.059   0.067   0.078   0.085
  0.087   0.103   0.111   0.120   0.125   0.125   0.129   0.132
  0.143   0.145   0.150   0.153   0.167   0.168   0.177   0.189
  0.203   0.211   0.219   0.221   0.231   0.249   0.252   0.254
  0.263   0.286   0.299   0.303   0.308   0.313   0.324   0.329
  0.341   0.351   0.373   0.397   0.426   0.448   0.465   0.476
  0.479   0.496   0.515   0.537   0.543   0.553   0.568   0.572
  0.576   0.578   0.582   0.591   0.603   0.606   0.619   0.630
  0.638   0.650   0.654   0.663   0.689   0.694   0.701   0.714
  0.743   0.767   0.773   0.797   0.829   0.847   0.879   0.899
  0.911   0.943   0.955   0.973   1.000   1.012   1.037   1.051
  1.071   1.074   1.086   1.109   1.124   1.130   1.141   1.156
  1.167   1.174   1.204   1.215   1.222   1.238   1.256   1.259
  1.284   1.290   1.305   1.319   1.328   1.343   1.362   1.365
  1.380   1.388   1.402   1.412   1.421   1.445   1.464   1.468
  1.490   1.498   1.507   1.520   1.545   1.568   1.577   1.580
  1.615   1.620   1.627   1.664   1.683   1.715   1.736   1.766
  1.798   1.844   1.887   2.120   2.170   2.362   2.392   2.430
  2.489   2.517   2.543   2.553   2.574   2.622   2.685   2.694
  2.727   2.737   2.750   2.794   2.831   2.839   2.851   2.867
  2.919   2.925   2.931   2.951   2.965   2.982   3.030   3.045
  3.068   3.085   3.117   3.135   3.168   3.187   3.218   3.228
  3.252   3.279   3.307   3.327   3.354   3.362   3.365   3.410
  3.417   3.430   3.436   3.452   3.464   3.499   3.515   3.531
  3.550   3.583   3.589   3.614   3.641   3.669   3.694   3.709
  3.726   3.742   3.752   3.758   3.784   3.820   3.829   3.882
  3.910   3.930   3.949   3.960   3.966   3.982   3.994   4.035
  4.043   4.060   4.086   4.127   4.134   4.162   4.175   4.187
  4.196   4.216   4.228   4.230   4.273   4.277   4.322   4.340
  4.360   4.389   4.400   4.430   4.469   4.486   4.505   4.533
  4.541   4.578   4.582   4.635   4.667   4.689   4.724   4.753
  4.843   5.012   5.083   5.132   5.162   5.241   5.285   5.311
  5.330   5.379   5.394   5.406   5.463   5.506   5.562   5.622
  5.641   5.652   5.670   5.673   5.849   5.888   6.556   6.886
  6.991   7.203   7.294   7.519  24.061  24.153  24.196  24.254
 24.288  49.735
 --------------------------------------------------------------
 
          Ground-State Mulliken Net Atomic Charges

     Atom                 Charge (a.u.)    Spin (a.u.)
  --------------------------------------------------------
      1 C                    -0.036679       0.002809
      2 H                     0.260451      -0.000415
      3 C                    -0.711929       0.013182
      4 H                     0.195978       0.005302
      5 H                     0.205743       0.002218
      6 H                     0.241316      -0.000681
      7 C                    -0.657600       0.001683
      8 H                     0.196820       0.001323
      9 H                     0.186961      -0.000075
     10 H                     0.206686      -0.000278
     11 C                    -0.348125       0.032933
     12 H                     0.180525       0.000165
     13 H                     0.303432      -0.000057
     14 C                    -0.590840      -0.091149
     15 H                     0.212557       0.028293
     16 H                     0.247992       0.123747
     17 O                    -0.093287       0.880997
  --------------------------------------------------------
  Sum of atomic charges =     0.000000
  Sum of spin   charges =     1.000000

 -----------------------------------------------------------------
                    Cartesian Multipole Moments
 -----------------------------------------------------------------
    Charge (ESU x 10^10)
                 0.0000
    Dipole Moment (Debye)
         X      -1.0477      Y       1.7367      Z      -0.6674
       Tot       2.1353
    Quadrupole Moments (Debye-Ang)
        XX     -43.0144     XY       4.3678     YY     -39.6602
        XZ      -0.9300     YZ       0.3979     ZZ     -39.7462
    Octapole Moments (Debye-Ang^2)
       XXX       2.6762    XXY       8.5713    XYY       3.1986
       YYY       1.3851    XXZ      -2.4380    XYZ       0.8417
       YYZ      -0.7132    XZZ       2.7122    YZZ      -0.3007
       ZZZ       0.8014
    Hexadecapole Moments (Debye-Ang^3)
      XXXX    -651.0828   XXXY      25.8674   XXYY    -145.6069
      XYYY      -0.5727   YYYY    -256.0015   XXXZ       5.2772
      XXYZ       3.1321   XYYZ       2.7942   YYYZ      -0.5397
      XXZZ    -121.9092   XYZZ       0.3875   YYZZ     -60.7504
      XZZZ      -1.1827   YZZZ      -0.9915   ZZZZ     -92.8234
 -----------------------------------------------------------------
 Calculating analytic gradient of the SCF energy
 Gradient of Coulomb and Exchange Energy
            1           2           3           4           5           6
    1   2.8343313   0.2572623   2.9067307   2.7007940  -3.2332024   0.0192433
    2   0.8748296  -0.5307892   3.1266739   2.9030531   2.1773652   1.3875495
    3  -0.2837484   4.8544956   0.8049988   1.3253059   1.2574225  -3.7953339
            7           8           9          10          11          12
    1   3.3967845   3.2594525   1.3688852   1.2401689  -1.1492352   0.7968097
    2  -0.5708060   1.8133687  -3.6094906  -0.1203474  -2.7786127  -4.5132350
    3  -0.2892940   1.2319828   0.7083294  -3.7061759   0.5148337   0.6333623
           13          14          15          16          17
    1  -0.1631076  -1.7339900  -0.6438756  -2.9340918  -8.9229599
    2  -0.1706652  -3.6825868  -0.2590250  -3.3661203   7.3188380
    3  -4.6493061   1.2377525   4.4537438  -1.0445186  -3.2538505
 Gradient of SCF Energy
            1           2           3           4           5           6
    1  -0.0006291  -0.0001840   0.0000463   0.0013353  -0.0014882   0.0000026
    2   0.0003590  -0.0001907  -0.0005821   0.0010580   0.0007416   0.0000379
    3   0.0007407   0.0017314  -0.0002038   0.0007727   0.0007050  -0.0017931
            7           8           9          10          11          12
    1  -0.0000716   0.0011343   0.0002901  -0.0001336   0.0000103   0.0007492
    2  -0.0000678   0.0011040  -0.0017483   0.0002500  -0.0011392  -0.0016359
    3  -0.0001773   0.0007260   0.0002761  -0.0017305  -0.0003025   0.0002371
           13          14          15          16          17
    1   0.0000589   0.0004592  -0.0005760  -0.0018160   0.0008122
    2   0.0003667   0.0070377  -0.0003779  -0.0019798  -0.0032329
    3  -0.0016433  -0.0020341   0.0022161  -0.0005899   0.0010694
 Max gradient component =       7.038E-03
 RMS gradient           =       1.472E-03
 Gradient time:  CPU 137.44 s  wall 137.81 s
 Geometry Optimization Parameters
   NAtoms,    NIC,     NZ,  NCons,   NDum,   NFix, NCnnct, MaxDiis
       17     116      17       0       0       0       0       0


** GEOMETRY OPTIMIZATION IN DELOCALIZED INTERNAL COORDINATES **
   Searching for a Minimum

   Optimization Cycle:   1

                       Coordinates (Angstroms)
     ATOM              X           Y           Z
      1  C        -0.861098    0.016185   -0.352979
      2  H        -0.820527    0.125477   -1.447686
      3  C        -0.623007   -1.454596   -0.008320
      4  H        -1.406749   -2.085610   -0.440076
      5  H         0.343533   -1.812752   -0.380361
      6  H        -0.629225   -1.598745    1.078835
      7  C        -2.243500    0.468255    0.120123
      8  H        -3.032837   -0.154734   -0.312637
      9  H        -2.440237    1.508899   -0.158809
     10  H        -2.318459    0.391767    1.211885
     11  C         0.223411    0.919993    0.244464
     12  H        -0.001678    1.967443    0.003585
     13  H         0.225041    0.826431    1.339147
     14  C         1.626204    0.596184   -0.272014
     15  H         1.663542    0.591515   -1.374822
     16  H         2.331612    1.384124    0.061619
     17  O         2.169240   -0.552492    0.253959
   Point Group: c1    Number of degrees of freedom:    45


   Energy is   -272.197403160


 Attempting to Generate Delocalized Internal Coordinates
 GETINT wrote B to file, NVib is           45
 calling HSSCONV
 HCONV 3*NATOMS:           51
 wrote HINT to file
  writing hessian 

 45 Hessian modes will be used to form the next step
  Hessian Eigenvalues:
     0.004819    0.005274    0.005283    0.005307    0.036382    0.036999
     0.048429    0.049478    0.049925    0.051185    0.055444    0.055765
     0.056895    0.056986    0.060753    0.084454    0.122661    0.160000
     0.160000    0.160000    0.160000    0.160000    0.160000    0.160000
     0.160000    0.166641    0.169169    0.219551    0.222071    0.291518
     0.294678    0.294739    0.294908    0.327119    0.333035    0.335831
     0.338291    0.338923    0.340158    0.340512    0.341451    0.342193
     0.342504    0.342709    0.500028

 Minimum Search - Taking Simple RFO Step
 Searching for Lamda that Minimizes Along All modes
 Value Taken    Lamda =  -0.00025058
 Step Taken.  Stepsize is  0.080623

                             Maximum     Tolerance    Cnvgd?
         Gradient           0.004652      0.000300      NO
         Displacement       0.032290      0.001200      NO
         Energy change     *********      0.000001      NO


 New Cartesian Coordinates Obtained by Inverse Iteration

 Displacement from previous Coordinates is:  0.125005
 ----------------------------------------------------
       Standard Nuclear Orientation (Angstroms)
    I     Atom         X            Y            Z
 ----------------------------------------------------
    1      C      -0.862757     0.019538    -0.360717
    2      H      -0.825830     0.132352    -1.457963
    3      C      -0.621501    -1.453351    -0.016605
    4      H      -1.411928    -2.085663    -0.441560
    5      H       0.343278    -1.814737    -0.398168
    6      H      -0.618267    -1.595197     1.073654
    7      C      -2.245176     0.467081     0.125280
    8      H      -3.037841    -0.154875    -0.309650
    9      H      -2.445375     1.513329    -0.140764
   10      H      -2.311087     0.377718     1.219351
   11      C       0.221119     0.925661     0.239905
   12      H      -0.002108     1.974750    -0.008046
   13      H       0.215500     0.836052     1.337523
   14      C       1.627266     0.587457    -0.266410
   15      H       1.674130     0.563019    -1.372141
   16      H       2.333101     1.386499     0.054417
   17      O       2.172742    -0.542290     0.287806
 ----------------------------------------------------
 Molecular Point Group                 C1    NOp =  1
 Largest Abelian Subgroup              C1    NOp =  1
 Nuclear Repulsion Energy =   249.4581548084 hartrees
 There are       25 alpha and       24 beta electrons
 Applying Cartesian multipole field
    Component          Value
    ---------          -----
     (2,0,0)        1.00000E-11
     (0,2,0)        2.00000E-11
     (0,0,2)       -3.00000E-11
 Nucleus-field energy     =     0.0000000063 hartrees
 Requested basis set is non-standard
 There are 138 shells and 314 basis functions
 A cutoff of  1.0D-11 yielded   9075 shell pairs
 There are     46813 function pairs (     56257 Cartesian)
 Smallest overlap matrix eigenvalue = 1.35E-05
 Guess MOs from SCF MO coefficient file
Reading MOs from coefficient file
Reading MOs from coefficient file
 An unrestricted hybrid HF-DFT SCF calculation will be
 performed using Pulay DIIS extrapolation
 Exchange:     0.5679 Hartree-Fock + 1.0000 M08SO
 SCF converges when DIIS error is below 1.0E-08
Geometry optimization detected.  Setting ReadMinima to 0
Setting SaveMinima to 0
 Inaccurate integrated density:
   Number of electrons =    49
   Numerical integral  =    48.987793540337
   Relative error      =    -0.0249111422 %
 ---------------------------------------
  Cycle       Energy         DIIS Error
 ---------------------------------------
    1    -272.1954524914      2.82E-04
    2    -272.1975096800      3.42E-05
    3    -272.1975378100      2.79E-05
    4    -272.1975475623      8.61E-06
    5    -272.1975504188      3.22E-06
    6    -272.1975514208      1.88E-06
    7    -272.1975518781      1.09E-06
    8    -272.1975520907      4.37E-07
    9    -272.1975521233      3.40E-07
   10    -272.1975521488      3.07E-07
   11    -272.1975521884      2.88E-07
   12    -272.1975523002      2.45E-07
   13    -272.1975524872      1.31E-07
   14    -272.1975525435      5.30E-08
   15    -272.1975525452      2.36E-08
   16    -272.1975525451      6.34E-09 Convergence criterion met
 ---------------------------------------
 <S^2> = 0.7538
 SCF time:  CPU 1597.94 s  wall 1610.49 s
 SCF   energy in the final basis set = -272.1975525451
 Total energy in the final basis set = -272.1975525451
 Analysis of SCF Wavefunction
 
 --------------------------------------------------------------
                    Orbital Energies (a.u.)
 --------------------------------------------------------------
 
 Alpha MOs
 -- Occupied --
-19.610 -10.555 -10.505 -10.501 -10.487 -10.482  -1.146  -0.917
 -0.825  -0.777  -0.712  -0.650  -0.583  -0.558  -0.539  -0.510
 -0.497  -0.465  -0.455  -0.448  -0.434  -0.402  -0.395  -0.377
 -0.363
 -- Virtual --
 -0.027  -0.014  -0.011  -0.005   0.013   0.014   0.019   0.022
  0.030   0.047   0.051   0.058   0.068   0.077   0.084   0.086
  0.103   0.112   0.121   0.125   0.125   0.129   0.132   0.143
  0.145   0.150   0.153   0.166   0.167   0.176   0.189   0.202
  0.208   0.216   0.219   0.230   0.248   0.250   0.253   0.262
  0.285   0.297   0.301   0.305   0.310   0.320   0.327   0.337
  0.350   0.373   0.393   0.426   0.446   0.462   0.475   0.478
  0.495   0.515   0.535   0.544   0.554   0.568   0.572   0.574
  0.578   0.582   0.592   0.600   0.605   0.615   0.629   0.637
  0.650   0.653   0.661   0.687   0.692   0.699   0.712   0.743
  0.760   0.772   0.798   0.827   0.847   0.878   0.897   0.909
  0.940   0.948   0.970   0.998   1.008   1.036   1.046   1.067
  1.074   1.085   1.107   1.120   1.126   1.140   1.149   1.164
  1.173   1.188   1.210   1.217   1.232   1.250   1.255   1.271
  1.286   1.301   1.319   1.327   1.341   1.356   1.364   1.377
  1.386   1.393   1.409   1.420   1.436   1.461   1.466   1.485
  1.495   1.505   1.516   1.544   1.564   1.572   1.579   1.612
  1.616   1.623   1.660   1.679   1.711   1.734   1.757   1.775
  1.806   1.865   2.121   2.141   2.349   2.392   2.432   2.494
  2.521   2.549   2.558   2.578   2.625   2.687   2.696   2.727
  2.735   2.750   2.794   2.830   2.846   2.853   2.871   2.918
  2.923   2.931   2.953   2.969   2.982   3.033   3.050   3.070
  3.092   3.121   3.136   3.171   3.188   3.220   3.231   3.255
  3.282   3.308   3.333   3.356   3.363   3.367   3.410   3.417
  3.432   3.443   3.459   3.468   3.501   3.518   3.540   3.555
  3.584   3.595   3.620   3.648   3.671   3.696   3.708   3.735
  3.744   3.753   3.759   3.782   3.821   3.829   3.879   3.908
  3.925   3.947   3.956   3.960   3.979   3.991   4.032   4.042
  4.059   4.088   4.127   4.135   4.159   4.176   4.183   4.193
  4.213   4.225   4.227   4.274   4.279   4.321   4.343   4.359
  4.392   4.396   4.426   4.470   4.481   4.499   4.528   4.537
  4.574   4.576   4.635   4.661   4.686   4.720   4.757   4.844
  4.956   4.993   5.080   5.141   5.197   5.202   5.266   5.292
  5.352   5.390   5.400   5.470   5.501   5.548   5.612   5.630
  5.639   5.660   5.663   5.853   5.902   6.610   6.795   6.831
  7.186   7.233   7.528  24.051  24.143  24.182  24.246  24.277
 49.736
 
 Beta MOs
 -- Occupied --
-19.586 -10.556 -10.505 -10.501 -10.487 -10.482  -1.093  -0.915
 -0.816  -0.777  -0.698  -0.649  -0.551  -0.543  -0.533  -0.498
 -0.481  -0.460  -0.453  -0.437  -0.406  -0.397  -0.392  -0.345
 -- Virtual --
 -0.091  -0.027  -0.015  -0.011  -0.005   0.012   0.014   0.019
  0.023   0.031   0.046   0.052   0.059   0.067   0.078   0.085
  0.087   0.103   0.111   0.120   0.125   0.125   0.129   0.132
  0.143   0.145   0.150   0.154   0.167   0.168   0.176   0.189
  0.203   0.210   0.218   0.220   0.230   0.249   0.252   0.253
  0.263   0.285   0.297   0.303   0.307   0.312   0.324   0.328
  0.340   0.352   0.373   0.396   0.426   0.447   0.465   0.475
  0.478   0.496   0.515   0.537   0.543   0.553   0.568   0.571
  0.575   0.578   0.582   0.590   0.601   0.606   0.617   0.629
  0.637   0.649   0.653   0.662   0.688   0.693   0.699   0.713
  0.743   0.763   0.773   0.798   0.828   0.847   0.879   0.898
  0.910   0.941   0.953   0.973   1.000   1.009   1.036   1.049
  1.071   1.075   1.086   1.109   1.123   1.128   1.140   1.153
  1.167   1.173   1.203   1.213   1.220   1.236   1.254   1.258
  1.281   1.288   1.305   1.320   1.326   1.341   1.361   1.364
  1.378   1.387   1.401   1.411   1.420   1.443   1.462   1.467
  1.489   1.496   1.506   1.517   1.545   1.566   1.576   1.579
  1.612   1.619   1.623   1.663   1.680   1.711   1.735   1.761
  1.798   1.836   1.887   2.122   2.165   2.364   2.392   2.431
  2.489   2.519   2.544   2.556   2.576   2.622   2.686   2.695
  2.725   2.733   2.746   2.791   2.828   2.838   2.849   2.865
  2.916   2.922   2.929   2.948   2.964   2.980   3.030   3.044
  3.065   3.081   3.116   3.132   3.167   3.186   3.217   3.228
  3.250   3.278   3.304   3.327   3.354   3.358   3.365   3.408
  3.415   3.428   3.436   3.452   3.464   3.496   3.514   3.530
  3.551   3.582   3.591   3.617   3.640   3.665   3.693   3.706
  3.724   3.738   3.750   3.755   3.780   3.815   3.823   3.876
  3.905   3.920   3.943   3.954   3.958   3.977   3.988   4.031
  4.039   4.056   4.083   4.123   4.130   4.157   4.172   4.182
  4.192   4.211   4.222   4.225   4.271   4.272   4.317   4.340
  4.354   4.386   4.394   4.425   4.463   4.479   4.498   4.526
  4.534   4.572   4.574   4.630   4.659   4.682   4.717   4.751
  4.842   5.006   5.083   5.130   5.162   5.238   5.283   5.312
  5.327   5.379   5.388   5.397   5.455   5.498   5.550   5.611
  5.630   5.640   5.659   5.662   5.856   5.892   6.565   6.887
  6.987   7.205   7.293   7.519  24.051  24.142  24.182  24.243
 24.274  49.736
 --------------------------------------------------------------
 
          Ground-State Mulliken Net Atomic Charges

     Atom                 Charge (a.u.)    Spin (a.u.)
  --------------------------------------------------------
      1 C                    -0.041440       0.003093
      2 H                     0.259588      -0.000306
      3 C                    -0.711882       0.011877
      4 H                     0.194689       0.005405
      5 H                     0.205554       0.002319
      6 H                     0.242873      -0.000499
      7 C                    -0.649745       0.001359
      8 H                     0.196122       0.001305
      9 H                     0.185299      -0.000063
     10 H                     0.205818      -0.000263
     11 C                    -0.344277       0.033157
     12 H                     0.178430      -0.000126
     13 H                     0.302659       0.000133
     14 C                    -0.592472      -0.093738
     15 H                     0.212840       0.030030
     16 H                     0.247871       0.128169
     17 O                    -0.091926       0.878147
  --------------------------------------------------------
  Sum of atomic charges =     0.000000
  Sum of spin   charges =     1.000000

 -----------------------------------------------------------------
                    Cartesian Multipole Moments
 -----------------------------------------------------------------
    Charge (ESU x 10^10)
                 0.0000
    Dipole Moment (Debye)
         X      -1.0475      Y       1.7209      Z      -0.7129
       Tot       2.1370
    Quadrupole Moments (Debye-Ang)
        XX     -43.0823     XY       4.3379     YY     -39.6560
        XZ      -1.0670     YZ       0.4368     ZZ     -39.8005
    Octapole Moments (Debye-Ang^2)
       XXX       2.6006    XXY       8.4748    XYY       3.2607
       YYY       1.2547    XXZ      -2.8990    XYZ       0.9315
       YYZ      -0.8402    XZZ       2.6936    YZZ      -0.3684
       ZZZ       0.4227
    Hexadecapole Moments (Debye-Ang^3)
      XXXX    -653.6141   XXXY      25.9811   XXYY    -145.6187
      XYYY      -0.6457   YYYY    -255.7783   XXXZ       3.3783
      XXYZ       3.3133   XYYZ       2.3303   YYYZ      -0.7033
      XXZZ    -122.4529   XYZZ       0.3734   YYZZ     -60.9227
      XZZZ      -2.4549   YZZZ      -1.1146   ZZZZ     -93.7930
 -----------------------------------------------------------------
 Calculating analytic gradient of the SCF energy
 Gradient of Coulomb and Exchange Energy
            1           2           3           4           5           6
    1   2.8352580   0.2578142   2.8938176   2.7179459  -3.2245706  -0.0194632
    2   0.9358304  -0.5482994   3.1801744   2.8952927   2.1802380   1.3659839
    3  -0.1199118   4.8552458   0.8340386   1.3054912   1.2922827  -3.7965322
            7           8           9          10          11          12
    1   3.4317992   3.2596678   1.3724455   1.2069627  -1.2082325   0.8000786
    2  -0.6483177   1.8168777  -3.6194496  -0.0670799  -2.8736584  -4.5125497
    3  -0.3282825   1.2358324   0.6530184  -3.7169706   0.4918273   0.6697980
           13          14          15          16          17
    1  -0.1234793  -1.6777913  -0.6893736  -2.9149916  -8.9178872
    2  -0.1827264  -3.6311255  -0.1787873  -3.3648710   7.2524679
    3  -4.6431791   1.3207188   4.4534420  -0.9862226  -3.5205966
 Gradient of SCF Energy
            1           2           3           4           5           6
    1  -0.0000691  -0.0000062  -0.0000921   0.0000276   0.0000058  -0.0000083
    2   0.0001325  -0.0000243  -0.0001023   0.0000164   0.0000472  -0.0001071
    3   0.0002375  -0.0001132  -0.0000882   0.0000198   0.0000534  -0.0000266
            7           8           9          10          11          12
    1   0.0002417   0.0000289  -0.0000220  -0.0001418  -0.0000292   0.0000508
    2   0.0000597  -0.0000118  -0.0000270   0.0000895  -0.0007540   0.0000889
    3   0.0000735   0.0000224  -0.0000558  -0.0000419   0.0002202  -0.0000601
           13          14          15          16          17
    1  -0.0000395  -0.0000922  -0.0001279  -0.0005524   0.0008259
    2   0.0001949   0.0031431  -0.0001842  -0.0006472  -0.0019144
    3   0.0000185  -0.0016673   0.0002375   0.0001541   0.0010163
 Max gradient component =       3.143E-03
 RMS gradient           =       6.233E-04
 Gradient time:  CPU 138.16 s  wall 138.41 s
 Geometry Optimization Parameters
   NAtoms,    NIC,     NZ,  NCons,   NDum,   NFix, NCnnct, MaxDiis
       17     116      17       0       0       0       0       0

 Cartesian Hessian Update
 Hessian Updated using BFGS Update


** GEOMETRY OPTIMIZATION IN DELOCALIZED INTERNAL COORDINATES **
   Searching for a Minimum

   Optimization Cycle:   2

                       Coordinates (Angstroms)
     ATOM              X           Y           Z
      1  C        -0.862757    0.019538   -0.360717
      2  H        -0.825830    0.132352   -1.457963
      3  C        -0.621501   -1.453351   -0.016605
      4  H        -1.411928   -2.085663   -0.441560
      5  H         0.343278   -1.814737   -0.398168
      6  H        -0.618267   -1.595197    1.073654
      7  C        -2.245176    0.467081    0.125280
      8  H        -3.037841   -0.154875   -0.309650
      9  H        -2.445375    1.513329   -0.140764
     10  H        -2.311087    0.377718    1.219351
     11  C         0.221119    0.925661    0.239905
     12  H        -0.002108    1.974750   -0.008046
     13  H         0.215500    0.836052    1.337523
     14  C         1.627266    0.587457   -0.266410
     15  H         1.674130    0.563019   -1.372141
     16  H         2.333101    1.386499    0.054417
     17  O         2.172742   -0.542290    0.287806
   Point Group: c1    Number of degrees of freedom:    45


   Energy is   -272.197552545

 GETINT wrote B to file, NVib is           45
 Hessian Updated using BFGS Update

 39 Hessian modes will be used to form the next step
  Hessian Eigenvalues:
     0.004498    0.005130    0.005295    0.005303    0.034828    0.037005
     0.048374    0.049171    0.049923    0.051518    0.055446    0.055596
     0.056899    0.056978    0.060495    0.084336    0.121989    0.156697
     0.160504    0.167247    0.169845    0.215178    0.221617    0.291022
     0.293902    0.294743    0.298521    0.308666    0.332733    0.336469
     0.338462    0.339401    0.340308    0.341001    0.341787    0.342348
     0.342635    0.359021    0.486754

 Minimum Search - Taking Simple RFO Step
 Searching for Lamda that Minimizes Along All modes
 Value Taken    Lamda =  -0.00004076
 Step Taken.  Stepsize is  0.055339

                             Maximum     Tolerance    Cnvgd?
         Gradient           0.001136      0.000300      NO
         Displacement       0.027857      0.001200      NO
         Energy change     -0.000149      0.000001      NO


 New Cartesian Coordinates Obtained by Inverse Iteration

 Displacement from previous Coordinates is:  0.093642
 ----------------------------------------------------
       Standard Nuclear Orientation (Angstroms)
    I     Atom         X            Y            Z
 ----------------------------------------------------
    1      C      -0.864380     0.023408    -0.364688
    2      H      -0.830857     0.138427    -1.461914
    3      C      -0.617372    -1.448874    -0.022038
    4      H      -1.409989    -2.083191    -0.440910
    5      H       0.345468    -1.809114    -0.410585
    6      H      -0.606076    -1.588936     1.068740
    7      C      -2.246745     0.464724     0.128520
    8      H      -3.040132    -0.155069    -0.309052
    9      H      -2.449448     1.513481    -0.126900
   10      H      -2.307186     0.364831     1.222378
   11      C       0.219057     0.930833     0.235687
   12      H       0.000341     1.979556    -0.018388
   13      H       0.208356     0.844918     1.333855
   14      C       1.625855     0.579451    -0.260373
   15      H       1.677289     0.542004    -1.366407
   16      H       2.335405     1.382389     0.049464
   17      O       2.165681    -0.541494     0.308524
 ----------------------------------------------------
 Molecular Point Group                 C1    NOp =  1
 Largest Abelian Subgroup              C1    NOp =  1
 Nuclear Repulsion Energy =   249.5916643145 hartrees
 There are       25 alpha and       24 beta electrons
 Applying Cartesian multipole field
    Component          Value
    ---------          -----
     (2,0,0)        1.00000E-11
     (0,2,0)        2.00000E-11
     (0,0,2)       -3.00000E-11
 Nucleus-field energy     =     0.0000000062 hartrees
 Requested basis set is non-standard
 There are 138 shells and 314 basis functions
 A cutoff of  1.0D-11 yielded   9078 shell pairs
 There are     46830 function pairs (     56278 Cartesian)
 Smallest overlap matrix eigenvalue = 1.33E-05
 Guess MOs from SCF MO coefficient file
Reading MOs from coefficient file
Reading MOs from coefficient file
 An unrestricted hybrid HF-DFT SCF calculation will be
 performed using Pulay DIIS extrapolation
 Exchange:     0.5679 Hartree-Fock + 1.0000 M08SO
 SCF converges when DIIS error is below 1.0E-08
Geometry optimization detected.  Setting ReadMinima to 0
Setting SaveMinima to 0
 ---------------------------------------
  Cycle       Energy         DIIS Error
 ---------------------------------------
    1    -272.1973854665      1.76E-04
    2    -272.1975635954      2.23E-05
    3    -272.1975719279      1.95E-05
    4    -272.1975758942      4.72E-06
    5    -272.1975763855      1.30E-06
    6    -272.1975764942      6.15E-07
    7    -272.1975765384      4.27E-07
    8    -272.1975765723      2.36E-07
    9    -272.1975765870      1.96E-07
   10    -272.1975765994      1.83E-07
   11    -272.1975766170      1.70E-07
   12    -272.1975766600      1.41E-07
   13    -272.1975767132      8.96E-08
   14    -272.1975767342      4.25E-08
   15    -272.1975767361      1.17E-08
   16    -272.1975767359      2.59E-09 Convergence criterion met
 ---------------------------------------
 <S^2> = 0.7539
 SCF time:  CPU 1566.94 s  wall 1579.22 s
 SCF   energy in the final basis set = -272.1975767359
 Total energy in the final basis set = -272.1975767359
 Analysis of SCF Wavefunction
 
 --------------------------------------------------------------
                    Orbital Energies (a.u.)
 --------------------------------------------------------------
 
 Alpha MOs
 -- Occupied --
-19.610 -10.555 -10.506 -10.501 -10.487 -10.483  -1.147  -0.917
 -0.824  -0.777  -0.712  -0.650  -0.584  -0.558  -0.539  -0.510
 -0.497  -0.465  -0.455  -0.448  -0.434  -0.402  -0.395  -0.376
 -0.363
 -- Virtual --
 -0.027  -0.014  -0.011  -0.005   0.013   0.014   0.019   0.022
  0.030   0.047   0.051   0.058   0.068   0.077   0.084   0.086
  0.103   0.112   0.121   0.124   0.125   0.129   0.132   0.142
  0.145   0.150   0.153   0.166   0.167   0.176   0.189   0.202
  0.208   0.216   0.219   0.230   0.248   0.251   0.253   0.263
  0.285   0.296   0.301   0.305   0.310   0.321   0.327   0.337
  0.351   0.373   0.393   0.425   0.446   0.461   0.475   0.478
  0.495   0.516   0.535   0.544   0.554   0.569   0.572   0.574
  0.579   0.582   0.592   0.599   0.606   0.615   0.629   0.637
  0.650   0.652   0.661   0.686   0.692   0.698   0.712   0.743
  0.759   0.773   0.798   0.826   0.847   0.878   0.896   0.910
  0.939   0.948   0.970   0.998   1.007   1.036   1.045   1.067
  1.076   1.087   1.107   1.120   1.126   1.140   1.148   1.165
  1.173   1.188   1.210   1.217   1.232   1.251   1.255   1.270
  1.286   1.302   1.320   1.326   1.341   1.357   1.364   1.377
  1.386   1.394   1.409   1.420   1.436   1.461   1.466   1.484
  1.495   1.506   1.516   1.544   1.564   1.573   1.579   1.611
  1.617   1.622   1.660   1.679   1.710   1.735   1.756   1.776
  1.806   1.867   2.122   2.142   2.352   2.392   2.433   2.495
  2.522   2.549   2.560   2.580   2.626   2.687   2.699   2.727
  2.734   2.748   2.794   2.830   2.846   2.853   2.871   2.917
  2.922   2.931   2.953   2.969   2.982   3.034   3.050   3.069
  3.092   3.121   3.136   3.171   3.189   3.220   3.232   3.255
  3.283   3.308   3.333   3.356   3.364   3.368   3.409   3.417
  3.432   3.445   3.460   3.471   3.501   3.518   3.538   3.556
  3.584   3.597   3.621   3.648   3.671   3.697   3.709   3.736
  3.743   3.753   3.760   3.782   3.820   3.828   3.879   3.907
  3.923   3.947   3.956   3.959   3.979   3.991   4.032   4.041
  4.060   4.089   4.127   4.135   4.158   4.176   4.183   4.193
  4.213   4.224   4.226   4.275   4.279   4.322   4.345   4.356
  4.392   4.397   4.427   4.469   4.481   4.498   4.528   4.536
  4.575   4.575   4.634   4.660   4.686   4.718   4.758   4.844
  4.956   4.995   5.081   5.143   5.197   5.204   5.269   5.294
  5.354   5.390   5.399   5.470   5.500   5.548   5.610   5.629
  5.638   5.660   5.662   5.861   5.910   6.620   6.797   6.833
  7.187   7.236   7.529  24.051  24.142  24.181  24.247  24.277
 49.739
 
 Beta MOs
 -- Occupied --
-19.586 -10.556 -10.505 -10.501 -10.487 -10.482  -1.094  -0.915
 -0.815  -0.776  -0.698  -0.649  -0.551  -0.543  -0.533  -0.498
 -0.481  -0.460  -0.453  -0.438  -0.406  -0.397  -0.392  -0.345
 -- Virtual --
 -0.091  -0.027  -0.015  -0.011  -0.005   0.012   0.014   0.019
  0.023   0.031   0.046   0.052   0.059   0.067   0.078   0.085
  0.087   0.103   0.111   0.120   0.124   0.125   0.129   0.132
  0.143   0.146   0.150   0.154   0.167   0.168   0.176   0.189
  0.204   0.210   0.218   0.220   0.230   0.249   0.252   0.253
  0.264   0.285   0.297   0.302   0.307   0.312   0.325   0.327
  0.340   0.353   0.374   0.397   0.425   0.447   0.464   0.475
  0.479   0.496   0.516   0.537   0.544   0.554   0.569   0.571
  0.575   0.578   0.582   0.589   0.601   0.606   0.616   0.629
  0.637   0.650   0.652   0.661   0.687   0.693   0.698   0.712
  0.743   0.762   0.774   0.799   0.827   0.847   0.878   0.897
  0.910   0.941   0.952   0.974   1.000   1.009   1.037   1.048
  1.072   1.077   1.088   1.109   1.123   1.127   1.140   1.151
  1.168   1.174   1.203   1.213   1.220   1.236   1.254   1.259
  1.281   1.288   1.305   1.322   1.325   1.341   1.362   1.365
  1.378   1.386   1.401   1.411   1.420   1.443   1.461   1.467
  1.489   1.495   1.506   1.517   1.545   1.565   1.576   1.580
  1.612   1.620   1.623   1.663   1.679   1.710   1.737   1.760
  1.800   1.836   1.889   2.124   2.166   2.365   2.392   2.431
  2.490   2.520   2.544   2.558   2.579   2.623   2.687   2.698
  2.725   2.733   2.744   2.792   2.828   2.838   2.848   2.865
  2.916   2.920   2.929   2.948   2.965   2.981   3.031   3.044
  3.065   3.080   3.116   3.132   3.167   3.186   3.216   3.229
  3.249   3.278   3.304   3.328   3.354   3.358   3.367   3.406
  3.415   3.428   3.437   3.453   3.466   3.496   3.514   3.529
  3.552   3.582   3.592   3.618   3.640   3.665   3.693   3.706
  3.726   3.737   3.750   3.756   3.779   3.814   3.822   3.876
  3.903   3.918   3.943   3.954   3.958   3.977   3.988   4.031
  4.038   4.056   4.085   4.123   4.131   4.156   4.172   4.182
  4.192   4.211   4.221   4.224   4.271   4.272   4.318   4.342
  4.351   4.387   4.394   4.425   4.462   4.480   4.496   4.525
  4.533   4.571   4.574   4.628   4.658   4.682   4.715   4.752
  4.842   5.005   5.085   5.131   5.163   5.239   5.284   5.314
  5.326   5.380   5.389   5.396   5.455   5.497   5.549   5.609
  5.629   5.638   5.659   5.661   5.864   5.900   6.575   6.889
  6.987   7.207   7.294   7.520  24.051  24.141  24.180  24.244
 24.274  49.739
 --------------------------------------------------------------
 
          Ground-State Mulliken Net Atomic Charges

     Atom                 Charge (a.u.)    Spin (a.u.)
  --------------------------------------------------------
      1 C                    -0.042851       0.002997
      2 H                     0.260104      -0.000226
      3 C                    -0.715027       0.011676
      4 H                     0.194244       0.005575
      5 H                     0.206334       0.002400
      6 H                     0.245876      -0.000429
      7 C                    -0.646906       0.001253
      8 H                     0.196250       0.001291
      9 H                     0.184511      -0.000047
     10 H                     0.205550      -0.000265
     11 C                    -0.347110       0.033371
     12 H                     0.177856      -0.000300
     13 H                     0.302814       0.000268
     14 C                    -0.593405      -0.095704
     15 H                     0.214459       0.031528
     16 H                     0.247662       0.130857
     17 O                    -0.090360       0.875755
  --------------------------------------------------------
  Sum of atomic charges =     0.000000
  Sum of spin   charges =     1.000000

 -----------------------------------------------------------------
                    Cartesian Multipole Moments
 -----------------------------------------------------------------
    Charge (ESU x 10^10)
                 0.0000
    Dipole Moment (Debye)
         X      -1.0359      Y       1.7135      Z      -0.7397
       Tot       2.1346
    Quadrupole Moments (Debye-Ang)
        XX     -43.0402     XY       4.3200     YY     -39.6605
        XZ      -1.1344     YZ       0.4596     ZZ     -39.8354
    Octapole Moments (Debye-Ang^2)
       XXX       2.8765    XXY       8.4128    XYY       3.3012
       YYY       1.2158    XXZ      -3.1571    XYZ       0.9896
       YYZ      -0.9375    XZZ       2.7115    YZZ      -0.4041
       ZZZ       0.1718
    Hexadecapole Moments (Debye-Ang^3)
      XXXX    -652.3897   XXXY      26.2722   XXYY    -145.2942
      XYYY      -0.3015   YYYY    -254.9987   XXXZ       2.2739
      XXYZ       3.4043   XYYZ       2.0077   YYYZ      -0.8148
      XXZZ    -122.4472   XYZZ       0.4711   YYZZ     -60.8821
      XZZZ      -3.2054   YZZZ      -1.1706   ZZZZ     -94.2285
 -----------------------------------------------------------------
 Calculating analytic gradient of the SCF energy
 Gradient of Coulomb and Exchange Energy
            1           2           3           4           5           6
    1   2.8237553   0.2672960   2.9249079   2.7263320  -3.2228417  -0.0588743
    2   0.9771346  -0.5636111   3.1941798   2.9019473   2.1756661   1.3501629
    3  -0.0992530   4.8587236   0.8879137   1.2908492   1.3183453  -3.7980745
            7           8           9          10          11          12
    1   3.4524595   3.2640807   1.3794513   1.1904574  -1.2325954   0.7871396
    2  -0.6943674   1.8138345  -3.6227704  -0.0218586  -2.9369714  -4.5195160
    3  -0.3403010   1.2440275   0.6110295  -3.7211500   0.5506429   0.7055589
           13          14          15          16          17
    1  -0.1011916  -1.6808617  -0.7098141  -2.9243686  -8.8853323
    2  -0.1934429  -3.6185036  -0.1270840  -3.3619241   7.2471244
    3  -4.6371586   1.2763643   4.4466542  -0.9338586  -3.6603133
 Gradient of SCF Energy
            1           2           3           4           5           6
    1   0.0000783   0.0000342   0.0000078  -0.0001520   0.0002278  -0.0000265
    2  -0.0000057   0.0000079   0.0001030  -0.0000997  -0.0000153  -0.0000216
    3   0.0000714  -0.0002195  -0.0000209  -0.0000885  -0.0000537   0.0002045
            7           8           9          10          11          12
    1   0.0000862  -0.0001548  -0.0000357  -0.0000069  -0.0000188  -0.0001041
    2   0.0000342  -0.0001590   0.0001872   0.0000032  -0.0002984   0.0002725
    3   0.0000386  -0.0000645  -0.0000648   0.0001829   0.0000264  -0.0000716
           13          14          15          16          17
    1   0.0000372  -0.0000885  -0.0000604   0.0000228   0.0001535
    2   0.0000111   0.0006241  -0.0001372   0.0000179  -0.0005241
    3   0.0001381  -0.0005607  -0.0000104   0.0002508   0.0002419
 Max gradient component =       6.241E-04
 RMS gradient           =       1.828E-04
 Gradient time:  CPU 139.65 s  wall 139.92 s
 Geometry Optimization Parameters
   NAtoms,    NIC,     NZ,  NCons,   NDum,   NFix, NCnnct, MaxDiis
       17     116      17       0       0       0       0       0

 Cartesian Hessian Update
 Hessian Updated using BFGS Update


** GEOMETRY OPTIMIZATION IN DELOCALIZED INTERNAL COORDINATES **
   Searching for a Minimum

   Optimization Cycle:   3

                       Coordinates (Angstroms)
     ATOM              X           Y           Z
      1  C        -0.864380    0.023408   -0.364688
      2  H        -0.830857    0.138427   -1.461914
      3  C        -0.617372   -1.448874   -0.022038
      4  H        -1.409989   -2.083191   -0.440910
      5  H         0.345468   -1.809114   -0.410585
      6  H        -0.606076   -1.588936    1.068740
      7  C        -2.246745    0.464724    0.128520
      8  H        -3.040132   -0.155069   -0.309052
      9  H        -2.449448    1.513481   -0.126900
     10  H        -2.307186    0.364831    1.222378
     11  C         0.219057    0.930833    0.235687
     12  H         0.000341    1.979556   -0.018388
     13  H         0.208356    0.844918    1.333855
     14  C         1.625855    0.579451   -0.260373
     15  H         1.677289    0.542004   -1.366407
     16  H         2.335405    1.382389    0.049464
     17  O         2.165681   -0.541494    0.308524
   Point Group: c1    Number of degrees of freedom:    45


   Energy is   -272.197576736

 GETINT wrote B to file, NVib is           45
 Hessian Updated using BFGS Update

 40 Hessian modes will be used to form the next step
  Hessian Eigenvalues:
     0.003600    0.005118    0.005302    0.005327    0.036990    0.037013
     0.048602    0.048746    0.049954    0.051453    0.055389    0.055822
     0.056888    0.056954    0.057941    0.084372    0.122704    0.153630
     0.160373    0.160767    0.167598    0.171148    0.217751    0.223177
     0.289711    0.294696    0.295419    0.298371    0.316504    0.333215
     0.336550    0.338671    0.339374    0.340308    0.341013    0.341807
     0.342354    0.342660    0.380551    0.437428

 Minimum Search - Taking Simple RFO Step
 Searching for Lamda that Minimizes Along All modes
 Value Taken    Lamda =  -0.00000903
 Step Taken.  Stepsize is  0.037526

                             Maximum     Tolerance    Cnvgd?
         Gradient           0.000534      0.000300      NO
         Displacement       0.020955      0.001200      NO
         Energy change     -0.000024      0.000001      NO


 New Cartesian Coordinates Obtained by Inverse Iteration

 Displacement from previous Coordinates is:  0.049150
 ----------------------------------------------------
       Standard Nuclear Orientation (Angstroms)
    I     Atom         X            Y            Z
 ----------------------------------------------------
    1      C      -0.864650     0.023951    -0.365264
    2      H      -0.832142     0.140325    -1.462066
    3      C      -0.617795    -1.448710    -0.024234
    4      H      -1.413338    -2.081785    -0.438868
    5      H       0.341986    -1.810811    -0.417849
    6      H      -0.600960    -1.588711     1.066247
    7      C      -2.246777     0.464070     0.129188
    8      H      -3.040430    -0.151992    -0.312472
    9      H      -2.448031     1.514365    -0.120017
   10      H      -2.307737     0.357699     1.222216
   11      C       0.218942     0.931486     0.235373
   12      H       0.001612     1.979501    -0.020869
   13      H       0.206272     0.847290     1.333536
   14      C       1.626191     0.577685    -0.257706
   15      H       1.677621     0.531677    -1.363672
   16      H       2.334589     1.386003     0.041803
   17      O       2.169913    -0.534700     0.320565
 ----------------------------------------------------
 Molecular Point Group                 C1    NOp =  1
 Largest Abelian Subgroup              C1    NOp =  1
 Nuclear Repulsion Energy =   249.5650328701 hartrees
 There are       25 alpha and       24 beta electrons
 Applying Cartesian multipole field
    Component          Value
    ---------          -----
     (2,0,0)        1.00000E-11
     (0,2,0)        2.00000E-11
     (0,0,2)       -3.00000E-11
 Nucleus-field energy     =     0.0000000062 hartrees
 Requested basis set is non-standard
 There are 138 shells and 314 basis functions
 A cutoff of  1.0D-11 yielded   9078 shell pairs
 There are     46830 function pairs (     56278 Cartesian)
 Smallest overlap matrix eigenvalue = 1.33E-05
 Guess MOs from SCF MO coefficient file
Reading MOs from coefficient file
Reading MOs from coefficient file
 An unrestricted hybrid HF-DFT SCF calculation will be
 performed using Pulay DIIS extrapolation
 Exchange:     0.5679 Hartree-Fock + 1.0000 M08SO
 SCF converges when DIIS error is below 1.0E-08
Geometry optimization detected.  Setting ReadMinima to 0
Setting SaveMinima to 0
 ---------------------------------------
  Cycle       Energy         DIIS Error
 ---------------------------------------
    1    -272.1978918155      1.03E-04
    2    -272.1975741293      1.24E-05
    3    -272.1975790407      8.33E-06
    4    -272.1975800705      3.81E-06
    5    -272.1975805657      1.21E-06
    6    -272.1975807577      7.04E-07
    7    -272.1975808545      4.04E-07
    8    -272.1975808819      2.28E-07
    9    -272.1975808948      2.05E-07
   10    -272.1975809092      1.94E-07
   11    -272.1975809442      1.73E-07
   12    -272.1975810153      1.19E-07
   13    -272.1975810618      4.18E-08
   14    -272.1975810648      1.49E-08
   15    -272.1975810650      7.23E-09 Convergence criterion met
 ---------------------------------------
 <S^2> = 0.7539
 SCF time:  CPU 1467.53 s  wall 1477.83 s
 SCF   energy in the final basis set = -272.1975810650
 Total energy in the final basis set = -272.1975810650
 Analysis of SCF Wavefunction
 
 --------------------------------------------------------------
                    Orbital Energies (a.u.)
 --------------------------------------------------------------
 
 Alpha MOs
 -- Occupied --
-19.610 -10.555 -10.505 -10.501 -10.487 -10.483  -1.148  -0.917
 -0.824  -0.777  -0.712  -0.650  -0.584  -0.558  -0.539  -0.510
 -0.498  -0.465  -0.455  -0.448  -0.434  -0.402  -0.395  -0.376
 -0.363
 -- Virtual --
 -0.027  -0.014  -0.011  -0.005   0.013   0.014   0.019   0.022
  0.031   0.047   0.051   0.058   0.068   0.077   0.084   0.086
  0.103   0.112   0.121   0.124   0.125   0.129   0.131   0.142
  0.146   0.150   0.153   0.166   0.167   0.176   0.189   0.202
  0.208   0.216   0.219   0.230   0.248   0.251   0.252   0.263
  0.286   0.296   0.301   0.305   0.310   0.321   0.326   0.337
  0.352   0.373   0.393   0.425   0.446   0.461   0.475   0.478
  0.496   0.516   0.535   0.544   0.554   0.569   0.572   0.574
  0.579   0.583   0.591   0.599   0.606   0.614   0.628   0.637
  0.650   0.652   0.661   0.687   0.691   0.698   0.712   0.743
  0.758   0.774   0.799   0.826   0.847   0.877   0.896   0.910
  0.940   0.948   0.971   0.999   1.008   1.036   1.045   1.067
  1.077   1.087   1.108   1.120   1.126   1.140   1.147   1.165
  1.174   1.187   1.209   1.216   1.232   1.250   1.256   1.270
  1.286   1.302   1.321   1.326   1.340   1.357   1.365   1.377
  1.386   1.394   1.409   1.420   1.436   1.461   1.466   1.484
  1.495   1.506   1.516   1.544   1.564   1.573   1.580   1.611
  1.618   1.622   1.660   1.679   1.709   1.736   1.755   1.775
  1.804   1.867   2.122   2.142   2.352   2.392   2.432   2.494
  2.522   2.549   2.561   2.580   2.626   2.687   2.699   2.727
  2.734   2.748   2.795   2.830   2.847   2.852   2.871   2.917
  2.922   2.931   2.952   2.970   2.982   3.034   3.050   3.068
  3.092   3.121   3.136   3.172   3.189   3.219   3.232   3.255
  3.283   3.308   3.334   3.356   3.364   3.369   3.408   3.416
  3.432   3.445   3.459   3.472   3.501   3.517   3.537   3.557
  3.584   3.598   3.621   3.647   3.671   3.697   3.709   3.736
  3.743   3.753   3.760   3.781   3.820   3.828   3.878   3.907
  3.923   3.947   3.956   3.959   3.979   3.991   4.032   4.041
  4.061   4.090   4.128   4.135   4.159   4.177   4.183   4.194
  4.213   4.224   4.226   4.274   4.279   4.322   4.346   4.356
  4.393   4.397   4.427   4.469   4.482   4.498   4.528   4.536
  4.574   4.575   4.634   4.660   4.686   4.718   4.758   4.844
  4.955   4.995   5.081   5.143   5.197   5.204   5.270   5.294
  5.354   5.390   5.399   5.471   5.502   5.549   5.611   5.630
  5.639   5.662   5.663   5.864   5.915   6.624   6.796   6.832
  7.186   7.237   7.529  24.052  24.143  24.182  24.248  24.278
 49.739
 
 Beta MOs
 -- Occupied --
-19.586 -10.556 -10.505 -10.501 -10.487 -10.482  -1.095  -0.915
 -0.815  -0.777  -0.698  -0.649  -0.551  -0.543  -0.533  -0.498
 -0.481  -0.460  -0.453  -0.438  -0.406  -0.397  -0.392  -0.344
 -- Virtual --
 -0.091  -0.027  -0.015  -0.011  -0.005   0.012   0.014   0.019
  0.023   0.031   0.046   0.052   0.059   0.067   0.078   0.085
  0.086   0.103   0.111   0.121   0.124   0.125   0.129   0.132
  0.142   0.146   0.150   0.154   0.166   0.168   0.176   0.189
  0.204   0.210   0.218   0.220   0.230   0.249   0.252   0.253
  0.265   0.286   0.297   0.302   0.307   0.311   0.325   0.327
  0.340   0.353   0.374   0.397   0.425   0.447   0.464   0.475
  0.478   0.496   0.516   0.537   0.544   0.554   0.569   0.571
  0.575   0.579   0.583   0.589   0.601   0.607   0.616   0.629
  0.637   0.650   0.653   0.661   0.687   0.693   0.698   0.712
  0.743   0.760   0.774   0.799   0.827   0.847   0.878   0.897
  0.910   0.941   0.952   0.975   1.001   1.009   1.037   1.048
  1.072   1.078   1.088   1.110   1.124   1.127   1.140   1.150
  1.169   1.175   1.203   1.212   1.219   1.236   1.254   1.260
  1.280   1.288   1.305   1.322   1.325   1.340   1.362   1.365
  1.378   1.387   1.402   1.411   1.420   1.443   1.461   1.467
  1.489   1.495   1.506   1.517   1.545   1.566   1.577   1.580
  1.612   1.620   1.622   1.663   1.679   1.709   1.737   1.759
  1.799   1.834   1.889   2.124   2.165   2.366   2.392   2.431
  2.490   2.520   2.544   2.558   2.579   2.623   2.687   2.699
  2.725   2.733   2.744   2.792   2.828   2.839   2.848   2.865
  2.916   2.920   2.929   2.948   2.965   2.980   3.031   3.044
  3.063   3.080   3.116   3.132   3.168   3.186   3.216   3.229
  3.249   3.278   3.304   3.329   3.355   3.358   3.368   3.405
  3.414   3.428   3.438   3.453   3.467   3.496   3.514   3.528
  3.553   3.581   3.593   3.617   3.639   3.665   3.694   3.707
  3.726   3.736   3.750   3.757   3.779   3.815   3.822   3.875
  3.903   3.918   3.943   3.955   3.958   3.977   3.989   4.031
  4.038   4.057   4.085   4.124   4.131   4.157   4.173   4.182
  4.192   4.211   4.221   4.225   4.272   4.272   4.318   4.343
  4.350   4.388   4.395   4.426   4.461   4.481   4.497   4.526
  4.533   4.571   4.574   4.628   4.658   4.683   4.715   4.753
  4.842   5.004   5.085   5.131   5.163   5.238   5.284   5.315
  5.326   5.382   5.389   5.397   5.456   5.498   5.550   5.610
  5.630   5.640   5.660   5.662   5.868   5.903   6.579   6.890
  6.985   7.208   7.294   7.520  24.052  24.142  24.181  24.246
 24.275  49.739
 --------------------------------------------------------------
 
          Ground-State Mulliken Net Atomic Charges

     Atom                 Charge (a.u.)    Spin (a.u.)
  --------------------------------------------------------
      1 C                    -0.044892       0.003176
      2 H                     0.260411      -0.000182
      3 C                    -0.715772       0.010854
      4 H                     0.193888       0.005540
      5 H                     0.206822       0.002438
      6 H                     0.246861      -0.000315
      7 C                    -0.646060       0.001139
      8 H                     0.196631       0.001254
      9 H                     0.184127      -0.000043
     10 H                     0.205649      -0.000255
     11 C                    -0.345575       0.033099
     12 H                     0.177272      -0.000434
     13 H                     0.302664       0.000377
     14 C                    -0.595268      -0.096959
     15 H                     0.215262       0.032797
     16 H                     0.247916       0.132138
     17 O                    -0.089938       0.875377
  --------------------------------------------------------
  Sum of atomic charges =     0.000000
  Sum of spin   charges =     1.000000

 -----------------------------------------------------------------
                    Cartesian Multipole Moments
 -----------------------------------------------------------------
    Charge (ESU x 10^10)
                 0.0000
    Dipole Moment (Debye)
         X      -1.0384      Y       1.7061      Z      -0.7589
       Tot       2.1366
    Quadrupole Moments (Debye-Ang)
        XX     -43.0662     XY       4.3104     YY     -39.6353
        XZ      -1.1868     YZ       0.4658     ZZ     -39.8491
    Octapole Moments (Debye-Ang^2)
       XXX       2.6870    XXY       8.3792    XYY       3.3467
       YYY       1.1417    XXZ      -3.3572    XYZ       1.0096
       YYZ      -1.0023    XZZ       2.6704    YZZ      -0.4406
       ZZZ      -0.0124
    Hexadecapole Moments (Debye-Ang^3)
      XXXX    -653.4914   XXXY      26.1369   XXYY    -145.2141
      XYYY      -0.4802   YYYY    -254.6131   XXXZ       1.4828
      XXYZ       3.4421   XYYZ       1.7860   YYYZ      -0.8729
      XXZZ    -122.6243   XYZZ       0.3987   YYZZ     -60.8643
      XZZZ      -3.7040   YZZZ      -1.2035   ZZZZ     -94.4532
 -----------------------------------------------------------------
 Calculating analytic gradient of the SCF energy
 Gradient of Coulomb and Exchange Energy
            1           2           3           4           5           6
    1   2.8229260   0.2679207   2.9258124   2.7359634  -3.2129809  -0.0807223
    2   0.9886398  -0.5708681   3.1964466   2.8979386   2.1816990   1.3486724
    3  -0.1105966   4.8568323   0.9178950   1.2762155   1.3370952  -3.7959278
            7           8           9          10          11          12
    1   3.4484779   3.2670017   1.3754727   1.1937693  -1.2563663   0.7845746
    2  -0.7162274   1.8025702  -3.6258211   0.0040778  -2.9163663  -4.5201169
    3  -0.3410992   1.2595553   0.5882048  -3.7199299   0.5660963   0.7183024
           13          14          15          16          17
    1  -0.0908235  -1.6590181  -0.7110276  -2.9173654  -8.8936147
    2  -0.1991023  -3.6124703  -0.0992108  -3.3721268   7.2122655
    3  -4.6353582   1.2729334   4.4451333  -0.8863099  -3.7490420
 Gradient of SCF Energy
            1           2           3           4           5           6
    1   0.0000571  -0.0000117  -0.0000849  -0.0000427   0.0000428  -0.0000059
    2  -0.0000701   0.0000121   0.0000093  -0.0000428  -0.0000475   0.0000148
    3  -0.0000307  -0.0000377  -0.0000134  -0.0000367  -0.0000230   0.0000614
            7           8           9          10          11          12
    1  -0.0000188  -0.0000432  -0.0000106   0.0000443   0.0000018  -0.0000084
    2   0.0000178  -0.0000510   0.0000489  -0.0000156   0.0000669   0.0000390
    3  -0.0000263  -0.0000150  -0.0000182   0.0000597   0.0001110  -0.0000258
           13          14          15          16          17
    1   0.0000025   0.0001081  -0.0000403   0.0000503  -0.0000404
    2  -0.0000086  -0.0002164   0.0000235   0.0000793   0.0001404
    3   0.0000662  -0.0002526  -0.0000186   0.0001299   0.0000699
 Max gradient component =       2.526E-04
 RMS gradient           =       6.958E-05
 Gradient time:  CPU 142.69 s  wall 143.05 s
 Geometry Optimization Parameters
   NAtoms,    NIC,     NZ,  NCons,   NDum,   NFix, NCnnct, MaxDiis
       17     116      17       0       0       0       0       0

 Cartesian Hessian Update
 Hessian Updated using BFGS Update


** GEOMETRY OPTIMIZATION IN DELOCALIZED INTERNAL COORDINATES **
   Searching for a Minimum

   Optimization Cycle:   4

                       Coordinates (Angstroms)
     ATOM              X           Y           Z
      1  C        -0.864650    0.023951   -0.365264
      2  H        -0.832142    0.140325   -1.462066
      3  C        -0.617795   -1.448710   -0.024234
      4  H        -1.413338   -2.081785   -0.438868
      5  H         0.341986   -1.810811   -0.417849
      6  H        -0.600960   -1.588711    1.066247
      7  C        -2.246777    0.464070    0.129188
      8  H        -3.040430   -0.151992   -0.312472
      9  H        -2.448031    1.514365   -0.120017
     10  H        -2.307737    0.357699    1.222216
     11  C         0.218942    0.931486    0.235373
     12  H         0.001612    1.979501   -0.020869
     13  H         0.206272    0.847290    1.333536
     14  C         1.626191    0.577685   -0.257706
     15  H         1.677621    0.531677   -1.363672
     16  H         2.334589    1.386003    0.041803
     17  O         2.169913   -0.534700    0.320565
   Point Group: c1    Number of degrees of freedom:    45


   Energy is   -272.197581065

 GETINT wrote B to file, NVib is           45
 Hessian Updated using BFGS Update

 41 Hessian modes will be used to form the next step
  Hessian Eigenvalues:
     0.003337    0.005075    0.005301    0.005610    0.036955    0.037032
     0.048567    0.049098    0.049955    0.053028    0.055246    0.055790
     0.056664    0.056914    0.057271    0.084372    0.122647    0.151750
     0.159914    0.160337    0.161279    0.169204    0.177936    0.216300
     0.227959    0.293554    0.294771    0.296558    0.303518    0.319005
     0.331969    0.336507    0.339132    0.339566    0.340310    0.341015
     0.341809    0.342356    0.342679    0.361614    0.442232

 Minimum Search - Taking Simple RFO Step
 Searching for Lamda that Minimizes Along All modes
 Value Taken    Lamda =  -0.00000141
 Step Taken.  Stepsize is  0.007535

                             Maximum     Tolerance    Cnvgd?
         Gradient           0.000283      0.000300     YES
         Displacement       0.003801      0.001200      NO
         Energy change     -0.000004      0.000001      NO


 New Cartesian Coordinates Obtained by Inverse Iteration

 Displacement from previous Coordinates is:  0.012336
 ----------------------------------------------------
       Standard Nuclear Orientation (Angstroms)
    I     Atom         X            Y            Z
 ----------------------------------------------------
    1      C      -0.864905     0.024482    -0.365029
    2      H      -0.832384     0.140863    -1.461751
    3      C      -0.616614    -1.447915    -0.024141
    4      H      -1.411871    -2.081623    -0.438038
    5      H       0.343067    -1.809044    -0.418571
    6      H      -0.598641    -1.588049     1.066198
    7      C      -2.247217     0.463956     0.129291
    8      H      -3.040520    -0.151193    -0.313966
    9      H      -2.448172     1.514526    -0.118568
   10      H      -2.309351     0.356092     1.222001
   11      C       0.218590     0.931982     0.235289
   12      H       0.001929     1.979887    -0.021494
   13      H       0.205488     0.848336     1.333386
   14      C       1.625558     0.576732    -0.257134
   15      H       1.676975     0.530163    -1.363096
   16      H       2.334971     1.384466     0.040906
   17      O       2.168363    -0.536317     0.320631
 ----------------------------------------------------
 Molecular Point Group                 C1    NOp =  1
 Largest Abelian Subgroup              C1    NOp =  1
 Nuclear Repulsion Energy =   249.6040255076 hartrees
 There are       25 alpha and       24 beta electrons
 Applying Cartesian multipole field
    Component          Value
    ---------          -----
     (2,0,0)        1.00000E-11
     (0,2,0)        2.00000E-11
     (0,0,2)       -3.00000E-11
 Nucleus-field energy     =     0.0000000062 hartrees
 Requested basis set is non-standard
 There are 138 shells and 314 basis functions
 A cutoff of  1.0D-11 yielded   9078 shell pairs
 There are     46830 function pairs (     56278 Cartesian)
 Smallest overlap matrix eigenvalue = 1.33E-05
 Guess MOs from SCF MO coefficient file
Reading MOs from coefficient file
Reading MOs from coefficient file
 An unrestricted hybrid HF-DFT SCF calculation will be
 performed using Pulay DIIS extrapolation
 Exchange:     0.5679 Hartree-Fock + 1.0000 M08SO
 SCF converges when DIIS error is below 1.0E-08
Geometry optimization detected.  Setting ReadMinima to 0
Setting SaveMinima to 0
 ---------------------------------------
  Cycle       Energy         DIIS Error
 ---------------------------------------
    1    -272.1977485096      1.72E-05
    2    -272.1975816334      2.39E-06
    3    -272.1975817636      1.62E-06
    4    -272.1975817986      5.76E-07
    5    -272.1975818088      2.21E-07
    6    -272.1975818128      1.36E-07
    7    -272.1975818152      8.68E-08
    8    -272.1975818169      6.06E-08
    9    -272.1975818180      5.50E-08
   10    -272.1975818191      5.20E-08
   11    -272.1975818219      4.57E-08
   12    -272.1975818280      2.68E-08
   13    -272.1975818303      9.22E-09 Convergence criterion met
 ---------------------------------------
 <S^2> = 0.7539
 SCF time:  CPU 1224.52 s  wall 1234.83 s
 SCF   energy in the final basis set = -272.1975818303
 Total energy in the final basis set = -272.1975818303
 Analysis of SCF Wavefunction
 
 --------------------------------------------------------------
                    Orbital Energies (a.u.)
 --------------------------------------------------------------
 
 Alpha MOs
 -- Occupied --
-19.610 -10.555 -10.505 -10.501 -10.487 -10.483  -1.148  -0.917
 -0.824  -0.777  -0.712  -0.650  -0.584  -0.558  -0.539  -0.510
 -0.498  -0.465  -0.455  -0.448  -0.434  -0.402  -0.395  -0.376
 -0.363
 -- Virtual --
 -0.027  -0.014  -0.011  -0.005   0.013   0.014   0.019   0.022
  0.031   0.047   0.051   0.058   0.068   0.077   0.084   0.086
  0.103   0.112   0.121   0.124   0.125   0.129   0.131   0.142
  0.146   0.150   0.153   0.166   0.167   0.175   0.189   0.202
  0.208   0.216   0.219   0.230   0.248   0.251   0.252   0.264
  0.286   0.296   0.301   0.305   0.310   0.321   0.326   0.337
  0.352   0.373   0.393   0.425   0.446   0.461   0.475   0.478
  0.496   0.516   0.535   0.544   0.554   0.569   0.572   0.574
  0.579   0.583   0.591   0.599   0.606   0.615   0.628   0.637
  0.650   0.652   0.661   0.687   0.691   0.698   0.712   0.743
  0.758   0.774   0.799   0.826   0.846   0.877   0.896   0.910
  0.940   0.948   0.971   0.999   1.008   1.036   1.045   1.067
  1.077   1.088   1.108   1.120   1.126   1.140   1.147   1.165
  1.174   1.187   1.209   1.217   1.232   1.251   1.256   1.271
  1.286   1.302   1.321   1.327   1.340   1.357   1.365   1.377
  1.386   1.394   1.409   1.420   1.437   1.461   1.466   1.484
  1.495   1.506   1.516   1.544   1.564   1.573   1.580   1.611
  1.618   1.622   1.660   1.679   1.709   1.736   1.755   1.775
  1.805   1.867   2.122   2.142   2.352   2.392   2.432   2.495
  2.521   2.549   2.561   2.580   2.626   2.687   2.700   2.727
  2.734   2.748   2.795   2.830   2.847   2.853   2.871   2.917
  2.922   2.931   2.953   2.970   2.982   3.034   3.050   3.068
  3.092   3.122   3.136   3.172   3.189   3.219   3.232   3.255
  3.283   3.308   3.334   3.356   3.364   3.369   3.408   3.416
  3.432   3.445   3.459   3.472   3.502   3.517   3.537   3.558
  3.584   3.598   3.620   3.648   3.671   3.697   3.709   3.737
  3.743   3.753   3.761   3.782   3.821   3.828   3.878   3.907
  3.923   3.947   3.957   3.959   3.979   3.992   4.032   4.041
  4.061   4.090   4.128   4.136   4.159   4.177   4.183   4.194
  4.213   4.224   4.226   4.275   4.279   4.323   4.346   4.356
  4.393   4.397   4.427   4.469   4.482   4.498   4.528   4.536
  4.575   4.576   4.634   4.660   4.686   4.718   4.758   4.844
  4.955   4.995   5.081   5.143   5.197   5.205   5.270   5.295
  5.354   5.390   5.399   5.472   5.502   5.549   5.611   5.630
  5.640   5.662   5.664   5.865   5.915   6.624   6.797   6.833
  7.186   7.237   7.529  24.053  24.143  24.182  24.249  24.279
 49.739
 
 Beta MOs
 -- Occupied --
-19.586 -10.556 -10.505 -10.501 -10.487 -10.482  -1.095  -0.915
 -0.815  -0.777  -0.698  -0.649  -0.551  -0.543  -0.533  -0.498
 -0.481  -0.460  -0.453  -0.438  -0.406  -0.397  -0.392  -0.344
 -- Virtual --
 -0.091  -0.027  -0.015  -0.011  -0.005   0.012   0.014   0.019
  0.023   0.031   0.046   0.052   0.059   0.067   0.078   0.085
  0.086   0.103   0.111   0.121   0.124   0.125   0.129   0.132
  0.142   0.146   0.150   0.154   0.166   0.168   0.176   0.189
  0.204   0.210   0.218   0.220   0.230   0.249   0.252   0.253
  0.265   0.286   0.297   0.302   0.307   0.311   0.325   0.327
  0.340   0.353   0.373   0.397   0.425   0.447   0.464   0.475
  0.478   0.496   0.516   0.537   0.544   0.554   0.569   0.571
  0.575   0.579   0.583   0.589   0.601   0.607   0.616   0.629
  0.637   0.650   0.653   0.661   0.687   0.693   0.698   0.713
  0.743   0.760   0.774   0.799   0.827   0.847   0.878   0.897
  0.910   0.941   0.952   0.975   1.001   1.009   1.037   1.047
  1.072   1.078   1.088   1.111   1.124   1.127   1.140   1.150
  1.169   1.175   1.203   1.212   1.220   1.236   1.254   1.260
  1.280   1.287   1.306   1.322   1.326   1.340   1.362   1.365
  1.378   1.387   1.402   1.411   1.420   1.443   1.461   1.467
  1.489   1.495   1.507   1.518   1.545   1.566   1.577   1.580
  1.612   1.620   1.622   1.663   1.679   1.710   1.738   1.759
  1.800   1.834   1.889   2.125   2.165   2.366   2.392   2.431
  2.490   2.520   2.544   2.558   2.579   2.623   2.686   2.699
  2.725   2.733   2.744   2.792   2.828   2.839   2.848   2.865
  2.916   2.920   2.929   2.948   2.965   2.980   3.031   3.044
  3.064   3.080   3.116   3.132   3.168   3.186   3.216   3.229
  3.249   3.278   3.304   3.329   3.355   3.358   3.368   3.405
  3.415   3.428   3.438   3.453   3.467   3.496   3.514   3.528
  3.553   3.581   3.593   3.617   3.639   3.665   3.694   3.707
  3.726   3.736   3.750   3.757   3.779   3.815   3.822   3.875
  3.903   3.918   3.944   3.955   3.958   3.977   3.989   4.031
  4.038   4.057   4.085   4.124   4.131   4.157   4.173   4.182
  4.192   4.211   4.221   4.225   4.272   4.272   4.318   4.344
  4.350   4.388   4.395   4.426   4.461   4.481   4.497   4.526
  4.534   4.571   4.575   4.628   4.658   4.683   4.715   4.753
  4.842   5.004   5.085   5.131   5.163   5.239   5.284   5.315
  5.326   5.382   5.389   5.397   5.457   5.498   5.551   5.610
  5.631   5.640   5.661   5.663   5.868   5.904   6.579   6.890
  6.985   7.208   7.294   7.520  24.053  24.142  24.182  24.246
 24.276  49.739
 --------------------------------------------------------------
 
          Ground-State Mulliken Net Atomic Charges

     Atom                 Charge (a.u.)    Spin (a.u.)
  --------------------------------------------------------
      1 C                    -0.043864       0.003122
      2 H                     0.260629      -0.000175
      3 C                    -0.716527       0.010967
      4 H                     0.193897       0.005567
      5 H                     0.206995       0.002439
      6 H                     0.247363      -0.000325
      7 C                    -0.646697       0.001150
      8 H                     0.196766       0.001248
      9 H                     0.184032      -0.000040
     10 H                     0.205665      -0.000255
     11 C                    -0.346525       0.033017
     12 H                     0.177307      -0.000455
     13 H                     0.302669       0.000387
     14 C                    -0.595616      -0.097123
     15 H                     0.215723       0.033105
     16 H                     0.247920       0.132049
     17 O                    -0.089738       0.875322
  --------------------------------------------------------
  Sum of atomic charges =     0.000000
  Sum of spin   charges =     1.000000

 -----------------------------------------------------------------
                    Cartesian Multipole Moments
 -----------------------------------------------------------------
    Charge (ESU x 10^10)
                 0.0000
    Dipole Moment (Debye)
         X      -1.0363      Y       1.7067      Z      -0.7590
       Tot       2.1360
    Quadrupole Moments (Debye-Ang)
        XX     -43.0538     XY       4.3093     YY     -39.6400
        XZ      -1.1870     YZ       0.4660     ZZ     -39.8483
    Octapole Moments (Debye-Ang^2)
       XXX       2.7451    XXY       8.3845    XYY       3.3444
       YYY       1.1540    XXZ      -3.3551    XYZ       1.0089
       YYZ      -1.0081    XZZ       2.6790    YZZ      -0.4384
       ZZZ      -0.0228
    Hexadecapole Moments (Debye-Ang^3)
      XXXX    -653.1032   XXXY      26.2692   XXYY    -145.1811
      XYYY      -0.3268   YYYY    -254.5222   XXXZ       1.4852
      XXYZ       3.4404   XYYZ       1.7715   YYYZ      -0.8748
      XXZZ    -122.5579   XYZZ       0.4481   YYZZ     -60.8465
      XZZZ      -3.6963   YZZZ      -1.1979   ZZZZ     -94.4274
 -----------------------------------------------------------------
 Calculating analytic gradient of the SCF energy
 Gradient of Coulomb and Exchange Energy
[...]
 C          0.046 -0.035 -0.063    0.043 -0.007 -0.086   -0.039 -0.085  0.038
 H         -0.039  0.010  0.044    0.001 -0.051  0.064   -0.212  0.183 -0.009
 H          0.154  0.004  0.016    0.046  0.027  0.075    0.287 -0.042 -0.098
 H          0.254 -0.016 -0.050    0.330 -0.096 -0.079   -0.110  0.224  0.061
 C         -0.082 -0.031  0.018    0.013 -0.075 -0.021   -0.021 -0.056 -0.053
 H          0.174  0.023 -0.002    0.006 -0.089 -0.088   -0.087 -0.070 -0.064
 H         -0.115  0.045  0.029    0.117  0.066 -0.012   -0.226 -0.107 -0.064
 C          0.124 -0.094  0.059   -0.063  0.090 -0.030   -0.021  0.026 -0.015
 H          0.468 -0.340  0.061   -0.162  0.243 -0.035   -0.025  0.080 -0.021
 H         -0.236  0.349 -0.251    0.474 -0.401  0.031    0.180 -0.156 -0.006
 O         -0.060  0.067 -0.068    0.027 -0.025  0.041    0.008 -0.005  0.012
 TransDip   0.000  0.000  0.000    0.000  0.000  0.000    0.000  0.000  0.000

 Mode:                22                     23                     24
 Frequency:      1226.35                1291.26                1313.56
 Force Cnst:      1.4173                 1.2117                 1.3597
 Red. Mass:       1.5995                 1.2334                 1.3375
 IR Active:          YES                    YES                    YES
 IR Intens:        0.000                  0.000                  0.000
 Raman Active:       YES                    YES                    YES
               X      Y      Z        X      Y      Z        X      Y      Z
 C          0.056  0.015  0.167   -0.051  0.006  0.005    0.052  0.026  0.012
 H          0.062 -0.120  0.154    0.539 -0.232 -0.006   -0.379 -0.178 -0.013
 C         -0.027 -0.012 -0.085    0.007 -0.007 -0.030   -0.014 -0.001 -0.012
 H         -0.021 -0.163  0.162   -0.039 -0.002  0.052    0.016 -0.050  0.010
 H          0.090  0.023  0.162    0.029 -0.013  0.037    0.022  0.008  0.061
 H          0.012  0.290 -0.035   -0.034  0.098 -0.014    0.060  0.010 -0.010
 C         -0.025 -0.006 -0.059    0.015  0.003  0.046   -0.008 -0.010 -0.030
 H         -0.118 -0.017  0.143    0.107 -0.023 -0.083   -0.099  0.034  0.076
 H          0.030  0.050  0.146    0.045 -0.028 -0.086   -0.023  0.017  0.076
 H          0.197 -0.021 -0.038   -0.104  0.008  0.038    0.022  0.024 -0.019
 C         -0.009  0.008 -0.084   -0.084 -0.031  0.010    0.079 -0.001  0.062
 H          0.238  0.100  0.098    0.600  0.124  0.028   -0.100 -0.059 -0.022
 H         -0.552 -0.303 -0.104   -0.018  0.055  0.017   -0.439  0.049  0.063
 C          0.050 -0.014 -0.004   -0.037  0.056 -0.033   -0.095  0.018 -0.053
 H         -0.361  0.097 -0.026    0.337  0.078 -0.030    0.603  0.248 -0.042
 H         -0.006 -0.004  0.079    0.181 -0.077 -0.194   -0.066  0.098 -0.326
 O         -0.007  0.012  0.003    0.008 -0.019  0.016    0.013 -0.036  0.025
 TransDip   0.000  0.000  0.000    0.000  0.000  0.000    0.000  0.000  0.000

 Mode:                25                     26                     27
 Frequency:      1348.11                1357.93                1378.35
 Force Cnst:      1.5035                 1.4692                 1.5199
 Red. Mass:       1.4041                 1.3523                 1.3578
 IR Active:          YES                    YES                    YES
 IR Intens:        0.000                  0.000                  0.000
 Raman Active:       YES                    YES                    YES
               X      Y      Z        X      Y      Z        X      Y      Z
 C          0.058 -0.158 -0.003   -0.109 -0.043 -0.003    0.080  0.048 -0.005
 H         -0.184  0.688  0.083    0.443  0.228  0.033   -0.282 -0.195 -0.038
 C         -0.011 -0.004  0.049    0.030  0.017  0.009   -0.021 -0.018 -0.005
 H         -0.039  0.186 -0.170   -0.004  0.026  0.043    0.010 -0.021 -0.044
 H         -0.010  0.233 -0.144   -0.049 -0.077 -0.080    0.030  0.044  0.048
 H          0.020  0.096  0.051   -0.136 -0.064  0.004    0.099  0.056  0.000
 C          0.007  0.037 -0.030    0.016  0.010  0.022   -0.024 -0.008 -0.003
 H         -0.053 -0.035  0.156    0.085 -0.031 -0.048   -0.005  0.003 -0.045
 H         -0.174  0.024  0.084    0.015 -0.024 -0.100    0.040  0.020  0.044
 H         -0.085 -0.099 -0.039   -0.017 -0.074  0.009    0.081  0.071  0.007
 C         -0.044  0.022 -0.008    0.082  0.043 -0.031   -0.115 -0.022 -0.004
 H          0.398  0.121  0.024   -0.274 -0.014  0.040    0.089  0.011 -0.043
 H         -0.043 -0.086 -0.015   -0.188 -0.115 -0.044    0.478  0.054  0.003
 C         -0.011  0.011 -0.010    0.014 -0.069  0.021    0.052 -0.061  0.036
 H          0.093  0.093 -0.017   -0.101  0.588 -0.033   -0.171  0.610 -0.026
 H          0.038  0.006 -0.109   -0.129  0.198 -0.334    0.045  0.114 -0.390
 O          0.003 -0.008  0.008   -0.003 -0.009  0.018   -0.005 -0.003  0.016
 TransDip   0.000  0.000  0.000    0.000  0.000  0.000    0.000  0.000  0.000

 Mode:                28                     29                     30
 Frequency:      1386.26                1403.36                1444.37
 Force Cnst:      1.5086                 1.4614                 1.3446
 Red. Mass:       1.3324                 1.2595                 1.0939
 IR Active:          YES                    YES                    YES
 IR Intens:        0.000                  0.000                  0.000
 Raman Active:       YES                    YES                    YES
               X      Y      Z        X      Y      Z        X      Y      Z
 C          0.040 -0.054 -0.005   -0.002  0.030 -0.004    0.004 -0.008  0.000
 H         -0.089  0.142  0.013    0.016 -0.059 -0.017    0.005  0.029  0.004
 C         -0.022  0.078 -0.009    0.016 -0.119  0.030   -0.020  0.017  0.002
 H          0.142 -0.194  0.074   -0.189  0.332 -0.243    0.071 -0.003 -0.136
 H         -0.066 -0.223  0.128    0.091  0.381 -0.208   -0.020 -0.133  0.115
 H          0.102 -0.289 -0.051   -0.044  0.490  0.098    0.210 -0.003 -0.009
 C         -0.119  0.050  0.035   -0.069  0.011  0.029    0.011  0.009  0.000
 H          0.300 -0.296 -0.212    0.176 -0.129 -0.203   -0.060  0.024  0.097
 H          0.405  0.074 -0.221    0.260  0.029 -0.146   -0.026 -0.020 -0.082
 H          0.450 -0.223  0.023    0.303 -0.061  0.033   -0.070 -0.123 -0.018
 C         -0.007  0.010  0.006    0.029 -0.009 -0.005    0.009 -0.059 -0.055
 H          0.099  0.028 -0.011   -0.117 -0.009  0.097   -0.035  0.119  0.644
 H         -0.030 -0.035  0.003   -0.086  0.106  0.009   -0.104  0.635  0.008
 C         -0.010  0.009 -0.008   -0.007 -0.002 -0.003    0.008 -0.012  0.000
 H          0.058 -0.033 -0.002    0.012 -0.035  0.001   -0.062  0.043 -0.005
 H          0.002 -0.006  0.004   -0.025  0.001  0.030   -0.002 -0.009  0.007
 O          0.002 -0.003  0.001    0.000  0.000 -0.001   -0.003  0.005  0.000
 TransDip   0.000  0.000  0.000    0.000  0.000  0.000    0.000  0.000  0.000

 Mode:                31                     32                     33
 Frequency:      1460.23                1470.14                1481.05
 Force Cnst:      1.3230                 1.3401                 1.3798
 Red. Mass:       1.0531                 1.0524                 1.0676
 IR Active:          YES                    YES                    YES
 IR Intens:        0.000                  0.000                  0.000
 Raman Active:       YES                    YES                    YES
               X      Y      Z        X      Y      Z        X      Y      Z
 C         -0.025  0.004 -0.001    0.029 -0.021  0.000   -0.033 -0.040  0.004
 H          0.028  0.014  0.000   -0.073  0.068  0.009    0.058  0.065  0.018
 C         -0.031 -0.020 -0.022    0.024  0.004 -0.025   -0.023  0.013  0.006
 H         -0.194  0.268 -0.103   -0.208  0.001  0.430    0.079  0.075 -0.273
 H          0.213  0.045  0.477    0.122  0.280  0.001   -0.022 -0.189  0.158
 H          0.483 -0.073 -0.032   -0.301 -0.251 -0.039    0.324  0.085  0.003
 C          0.022  0.014  0.023   -0.003 -0.018  0.030   -0.004 -0.041  0.000
 H         -0.130  0.191  0.018   -0.066  0.326 -0.348    0.137  0.104 -0.430
 H         -0.128 -0.108 -0.354   -0.305 -0.109 -0.151   -0.207  0.016  0.340
 H          0.049 -0.304 -0.016    0.307  0.090  0.042    0.239  0.538  0.064
 C          0.007  0.016  0.012   -0.004 -0.013 -0.012    0.013  0.010  0.000
 H         -0.023 -0.039 -0.166    0.028  0.036  0.153    0.018  0.012  0.007
 H          0.021 -0.165 -0.004   -0.026  0.141  0.002   -0.045 -0.018  0.001
 C          0.002  0.000  0.001   -0.002 -0.001 -0.001   -0.002  0.002 -0.003
 H         -0.015  0.002  0.001    0.003  0.002 -0.001    0.004 -0.008 -0.002
 H         -0.006  0.008  0.004    0.004 -0.006 -0.004   -0.009  0.004  0.010
 O          0.000 -0.001  0.000   -0.001  0.000  0.000    0.001  0.000  0.000
 TransDip   0.000  0.000  0.000    0.000  0.000  0.000    0.000  0.000  0.000

 Mode:                34                     35                     36
 Frequency:      1484.77                2854.35                2928.38
 Force Cnst:      1.3589                 5.1028                 5.4782
 Red. Mass:       1.0462                 1.0630                 1.0843
 IR Active:          YES                    YES                    YES
 IR Intens:        0.000                  0.000                  0.000
 Raman Active:       YES                    YES                    YES
               X      Y      Z        X      Y      Z        X      Y      Z
 C         -0.013 -0.011 -0.033    0.000  0.001  0.000    0.000  0.000  0.001
 H          0.044  0.051 -0.032    0.000  0.000  0.002    0.004  0.002 -0.002
 C          0.002 -0.013 -0.029    0.001  0.000  0.000    0.000  0.000  0.000
 H         -0.311  0.200  0.270    0.003  0.001  0.001   -0.001  0.000 -0.001
 H          0.244  0.266  0.314   -0.009  0.004  0.003    0.003  0.000 -0.002
 H          0.075 -0.267 -0.052    0.000  0.000 -0.003   -0.001  0.001 -0.004
 C         -0.016 -0.001 -0.027    0.000  0.000  0.000    0.000  0.000  0.000
 H          0.163 -0.328  0.126    0.001  0.002  0.001   -0.003 -0.002 -0.002
 H          0.258  0.142  0.366    0.000 -0.001  0.000    0.000  0.000  0.000
 H         -0.199  0.219 -0.003    0.000  0.000 -0.003   -0.001  0.000  0.004
 C          0.009 -0.002 -0.003   -0.001  0.001  0.000   -0.002  0.000  0.009
 H         -0.040  0.010  0.074    0.006 -0.031  0.010    0.010 -0.024  0.006
 H          0.006  0.083  0.003   -0.001  0.004 -0.020   -0.003  0.009 -0.125
 C          0.000 -0.004  0.001   -0.051 -0.048 -0.006   -0.006 -0.018 -0.081
 H         -0.016  0.009  0.000   -0.012 -0.031 -0.222   -0.032  0.052  0.966
 H         -0.011  0.006  0.002    0.598  0.721  0.256    0.133  0.149  0.024
 O          0.000  0.000  0.000    0.001 -0.007  0.003   -0.001  0.001 -0.001
 TransDip   0.000  0.000  0.000    0.000  0.000  0.000    0.000  0.000  0.000

 Mode:                37                     38                     39
 Frequency:      2954.20                2970.35                2972.67
 Force Cnst:      5.5652                 5.4021                 5.4752
 Red. Mass:       1.0823                 1.0392                 1.0516
 IR Active:          YES                    YES                    YES
 IR Intens:        0.000                  0.000                  0.000
 Raman Active:       YES                    YES                    YES
               X      Y      Z        X      Y      Z        X      Y      Z
 C          0.001  0.008 -0.079   -0.002  0.001 -0.001    0.001  0.002 -0.012
 H         -0.015 -0.099  0.948    0.002 -0.002  0.011   -0.002 -0.016  0.141
 C          0.000  0.000  0.010    0.001 -0.007  0.003    0.004 -0.024  0.010
 H         -0.019 -0.010 -0.007    0.065  0.049  0.033    0.210  0.159  0.110
 H          0.024 -0.005 -0.007   -0.078  0.025  0.035   -0.254  0.090  0.112
 H         -0.002  0.012 -0.107   -0.001  0.010 -0.100   -0.008  0.035 -0.346
 C          0.000 -0.001  0.012    0.036 -0.013 -0.027    0.010 -0.003 -0.005
 H         -0.002 -0.006 -0.001   -0.316 -0.256 -0.186   -0.092 -0.074 -0.052
 H          0.002  0.008  0.000   -0.081  0.471 -0.121   -0.022  0.126 -0.032
 H          0.005  0.015 -0.146   -0.018 -0.065  0.623   -0.005 -0.015  0.142
 C          0.000  0.001  0.017   -0.004  0.017  0.017    0.010 -0.040 -0.035
 H          0.002 -0.030  0.010    0.050 -0.230  0.062   -0.112  0.524 -0.141
 H          0.003  0.017 -0.219    0.002  0.025 -0.270    0.000 -0.053  0.563
 C          0.001  0.001  0.003    0.001  0.001  0.004   -0.002 -0.003 -0.007
 H         -0.001 -0.001 -0.023    0.001 -0.002 -0.040   -0.006  0.004  0.075
 H         -0.008 -0.009 -0.003   -0.013 -0.015 -0.004    0.026  0.030  0.010
 O          0.000  0.000  0.000    0.000  0.000  0.000    0.000  0.000  0.000
 TransDip   0.000  0.000  0.000    0.000  0.000  0.000    0.000  0.000  0.000

 Mode:                40                     41                     42
 Frequency:      2975.61                3019.66                3038.22
 Force Cnst:      5.4318                 5.9310                 5.9865
 Red. Mass:       1.0412                 1.1040                 1.1007
 IR Active:          YES                    YES                    YES
 IR Intens:        0.000                  0.000                  0.000
 Raman Active:       YES                    YES                    YES
               X      Y      Z        X      Y      Z        X      Y      Z
 C          0.001  0.000 -0.012    0.000 -0.002  0.010    0.000  0.001 -0.008
 H         -0.002 -0.013  0.141   -0.002  0.010 -0.109   -0.004 -0.007  0.087
 C         -0.007  0.039 -0.013    0.001  0.000 -0.006   -0.007  0.006  0.028
 H         -0.338 -0.257 -0.174    0.011  0.007  0.003   -0.069 -0.050 -0.028
 H          0.412 -0.144 -0.179   -0.021  0.007  0.008    0.162 -0.057 -0.062
 H          0.012 -0.056  0.505    0.002 -0.004  0.053   -0.007  0.028 -0.243
 C          0.013 -0.005 -0.008   -0.003  0.005 -0.009   -0.026  0.034 -0.075
 H         -0.118 -0.093 -0.067    0.024  0.022  0.011    0.239  0.200  0.119
 H         -0.032  0.171 -0.043    0.011 -0.075  0.017    0.097 -0.543  0.116
 H         -0.009 -0.021  0.207   -0.001 -0.007  0.081   -0.032 -0.060  0.665
 C          0.005 -0.021 -0.020    0.012 -0.061  0.068   -0.001  0.005 -0.006
 H         -0.058  0.278 -0.073   -0.147  0.692 -0.166    0.010 -0.057  0.013
 H          0.002 -0.026  0.307    0.004  0.040 -0.654    0.002 -0.003  0.058
 C         -0.002 -0.002 -0.004    0.000  0.000  0.006    0.000  0.000  0.000
 H         -0.002  0.002  0.038    0.004 -0.006 -0.066    0.000  0.000  0.003
 H          0.022  0.023  0.007   -0.003 -0.002  0.002    0.001  0.001  0.000
 O          0.000  0.000  0.000    0.000  0.000  0.000    0.000  0.000  0.000
 TransDip   0.000  0.000  0.000    0.000  0.000  0.000    0.000  0.000  0.000

 Mode:                43                     44                     45
 Frequency:      3043.54                3048.75                3051.75
 Force Cnst:      6.0088                 6.0361                 6.0458
 Red. Mass:       1.1010                 1.1022                 1.1018
 IR Active:          YES                    YES                    YES
 IR Intens:        0.000                  0.000                  0.000
 Raman Active:       YES                    YES                    YES
               X      Y      Z        X      Y      Z        X      Y      Z
 C          0.001  0.002 -0.013   -0.001  0.001 -0.005   -0.001 -0.001 -0.004
 H         -0.003 -0.016  0.133    0.000 -0.007  0.051    0.000 -0.004  0.041
 C          0.046 -0.013 -0.073   -0.074 -0.023 -0.038   -0.026 -0.009 -0.017
 H          0.029  0.012 -0.007    0.565  0.448  0.290    0.211  0.171  0.108
 H         -0.608  0.223  0.249    0.331 -0.132 -0.158    0.098 -0.039 -0.047
 H          0.029 -0.081  0.629   -0.009 -0.045  0.322   -0.002 -0.020  0.142
 C         -0.007  0.014 -0.022    0.011  0.031  0.002   -0.036 -0.075 -0.025
 H          0.051  0.044  0.024   -0.179 -0.140 -0.103    0.551  0.422  0.307
 H          0.035 -0.187  0.042    0.049 -0.239  0.061   -0.103  0.501 -0.131
 H         -0.012 -0.015  0.198    0.001  0.006  0.019   -0.014 -0.029  0.120
 C         -0.001  0.004 -0.005    0.000  0.002 -0.002    0.000  0.000  0.000
 H          0.009 -0.049  0.012    0.003 -0.020  0.005    0.001  0.005 -0.001
 H          0.002 -0.001  0.048    0.001  0.001  0.016    0.002  0.000  0.004
 C          0.000  0.000 -0.001    0.000  0.000  0.000    0.000  0.000  0.000
 H         -0.003  0.001  0.011    0.001  0.000  0.001    0.000  0.000  0.004
 H         -0.004 -0.003 -0.001    0.003  0.002  0.000    0.001  0.000  0.000
 O          0.000  0.000  0.000    0.000  0.000  0.000    0.000  0.000  0.000
 TransDip   0.000  0.000  0.000    0.000  0.000  0.000    0.000  0.000  0.000

 STANDARD THERMODYNAMIC QUANTITIES AT   298.15 K  AND     1.00 ATM

   This Molecule has  0 Imaginary Frequencies
   Zero point vibrational energy:       93.258 kcal/mol

   Atom    1 Element C  Has Mass   12.00000
   Atom    2 Element H  Has Mass    1.00783
   Atom    3 Element C  Has Mass   12.00000
   Atom    4 Element H  Has Mass    1.00783
   Atom    5 Element H  Has Mass    1.00783
   Atom    6 Element H  Has Mass    1.00783
   Atom    7 Element C  Has Mass   12.00000
   Atom    8 Element H  Has Mass    1.00783
   Atom    9 Element H  Has Mass    1.00783
   Atom   10 Element H  Has Mass    1.00783
   Atom   11 Element C  Has Mass   12.00000
   Atom   12 Element H  Has Mass    1.00783
   Atom   13 Element H  Has Mass    1.00783
   Atom   14 Element C  Has Mass   12.00000
   Atom   15 Element H  Has Mass    1.00783
   Atom   16 Element H  Has Mass    1.00783
   Atom   17 Element O  Has Mass   15.99491
   Molecular Mass:    87.081040 amu
   Principal axes and moments of inertia in atomic units:
                             1           2           3
    Eigenvalues --      285.64151   812.19653   999.74606
          X               0.99966     0.02256    -0.01279
          Y              -0.02246     0.99972     0.00715
          Z               0.01295    -0.00686     0.99989
   Rotational Symmetry Number is   1
   The Molecule is an Asymmetric Top
   Translational Enthalpy:        0.889 kcal/mol
   Rotational Enthalpy:           0.889 kcal/mol
   Vibrational Enthalpy:         96.338 kcal/mol
   gas constant (RT):             0.592 kcal/mol
   Translational Entropy:        39.306  cal/mol.K
   Rotational Entropy:           26.941  cal/mol.K
   Vibrational Entropy:          18.278  cal/mol.K

   Total Enthalpy:               98.708 kcal/mol
   Total Entropy:                84.525  cal/mol.K
Archival summary:
1\1\node65\FREQ\ProcedureUnspecified\BasisUnspecified\1511(2)\edames\ThuApr1017:09:312014ThuApr1017:09:312014\0\\#,FREQ,ProcedureUnspecified,BasisUnspecified,\\0,2\C\H,1,1.10336\C,1,1.5316,2,108.533\H,3,1.09787,1,110.706,2,62.8378,0\H,3,1.09863,1,112.192,2,-57.7865,0\H,3,1.09945,1,110.237,2,-177.492,0\C,1,1.53241,2,108.48,3,120.093,0\H,7,1.09737,1,111.164,2,-60.5018,0\H,7,1.09796,1,111.511,2,60.3768,0\H,7,1.09978,1,110.081,2,-179.865,0\C,1,1.53555,2,107.786,3,-120.915,0\H,11,1.10045,1,109.428,2,-61.5215,0\H,11,1.10136,1,109.664,2,-179.35,0\C,11,1.5324,1,112.657,2,59.9753,0\H,14,1.10813,11,111.904,1,-52.0974,0\H,14,1.11558,11,109.278,1,-168.594,0\O,14,1.3665,11,114.688,1,76.4327,0\\\@

 Total job time:  98682.95s(wall), 97501.79s(cpu) 
 Thu Apr 10 17:09:31 2014

        *************************************************************
        *                                                           *
        *  Thank you very much for using Q-Chem.  Have a nice day.  *
        *                                                           *
        *************************************************************


0 sent ACK to 0 
now end server 0 ... 
cleanup process ... done
remove work dirs /tmp/qchem7641.0 -- /tmp/qchem7641.3
rm -rf /tmp/qchem7641.0
rm -rf /tmp/qchem7641.1
rm -rf /tmp/qchem7641.2
rm -rf /tmp/qchem7641.3
rm -rf /tmp/qchem7641
