
Running Job 1 of 1 pentyl_freq.inp

                  Welcome to Q-Chem
     A Quantum Leap Into The Future Of Chemistry


 Q-Chem 5.2, Q-Chem, Inc., Pleasanton, CA (2019)

 License issued to: National Energy Research Scientific Computing Center

 Yihan Shao,  Zhengting Gan,  E. Epifanovsky,  A. T. B. Gilbert,  M. Wormit,  
 J. Kussmann,  A. W. Lange,  A. Behn,  Jia Deng,  Xintian Feng,  D. Ghosh,  
 M. Goldey,  P. R. Horn,  L. D. Jacobson,  I. Kaliman,  T. Kus,  A. Landau,  
 Jie Liu,  E. I. Proynov,  R. M. Richard,  R. P. Steele,  E. J. Sundstrom,  
 H. L. Woodcock III,  P. M. Zimmerman,  D. Zuev,  B. Albrecht,  E. Alguire,  
 S. A. Baeppler,  D. Barton,  Z. Benda,  Y. A. Bernard,  E. J. Berquist,  
 K. B. Bravaya,  H. Burton,  D. Casanova,  Chun-Min Chang,  Yunqing Chen,  
 A. Chien,  K. D. Closser,  M. P. Coons,  S. Coriani,  S. Dasgupta,  
 A. L. Dempwolff,  M. Diedenhofen,  Hainam Do,  R. G. Edgar,  Po-Tung Fang,  
 S. Faraji,  S. Fatehi,  Qingguo Feng,  K. D. Fenk,  J. Fosso-Tande,  
 J. Gayvert,  Qinghui Ge,  A. Ghysels,  G. Gidofalvi,  J. Gomes,  
 J. Gonthier,  A. Gunina,  D. Hait,  M. W. D. Hanson-Heine,  
 P. H. P. Harbach,  A. W. Hauser,  M. F. Herbst,  J. E. Herr,  
 E. G. Hohenstein,  Z. C. Holden,  Kerwin Hui,  B. C. Huynh,  T.-C. Jagau,  
 Hyunjun Ji,  B. Kaduk,  K. Khistyaev,  Jaehoon Kim,  P. Klunzinger,  K. Koh,  
 D. Kosenkov,  L. Koulias,  T. Kowalczyk,  C. M. Krauter,  A. Kunitsa,  
 Ka Un Lao,  A. Laurent,  K. V. Lawler,  Joonho Lee,  D. Lefrancois,  
 S. Lehtola,  D. S. Levine,  Yi-Pei Li,  You-Sheng Lin,  Fenglai Liu,  
 E. Livshits,  A. Luenser,  P. Manohar,  E. Mansoor,  S. F. Manzer,  
 Shan-Ping Mao,  Yuezhi Mao,  N. Mardirossian,  A. V. Marenich,  
 T. Markovich,  L. A. Martinez-Martinez,  S. A. Maurer,  N. J. Mayhall,  
 S. C. McKenzie,  J.-M. Mewes,  P. Morgante,  A. F. Morrison,  
 J. W. Mullinax,  K. Nanda,  T. S. Nguyen-Beck,  R. Olivares-Amaya,  
 J. A. Parkhill,  Zheng Pei,  T. M. Perrine,  F. Plasser,  P. Pokhilko,  
 S. Prager,  A. Prociuk,  E. Ramos,  D. R. Rehn,  F. Rob,  M. Scheurer,  
 M. Schneider,  N. Sergueev,  S. M. Sharada,  S. Sharma,  D. W. Small,  
 T. Stauch,  T. Stein,  Yu-Chuan Su,  A. J. W. Thom,  A. Tkatchenko,  
 T. Tsuchimochi,  N. M. Tubman,  L. Vogt,  M. L. Vidal,  O. Vydrov,  
 M. A. Watson,  J. Wenzel,  M. de Wergifosse,  T. A. Wesolowski,  A. White,  
 J. Witte,  A. Yamada,  Jun Yang,  K. Yao,  S. Yeganeh,  S. R. Yost,  
 Zhi-Qiang You,  A. Zech,  Igor Ying Zhang,  Xing Zhang,  Yan Zhao,  
 Ying Zhu,  B. R. Brooks,  G. K. L. Chan,  C. J. Cramer,  M. S. Gordon,  
 W. J. Hehre,  A. Klamt,  M. W. Schmidt,  C. D. Sherrill,  D. G. Truhlar,  
 A. Aspuru-Guzik,  R. Baer,  A. T. Bell,  N. A. Besley,  Jeng-Da Chai,  
 A. E. DePrince, III,  R. A. DiStasio Jr.,  A. Dreuw,  B. D. Dunietz,  
 T. R. Furlani,  Chao-Ping Hsu,  Yousung Jung,  Jing Kong,  D. S. Lambrecht,  
 WanZhen Liang,  C. Ochsenfeld,  V. A. Rassolov,  L. V. Slipchenko,  
 J. E. Subotnik,  T. Van Voorhis,  J. M. Herbert,  A. I. Krylov,  
 P. M. W. Gill,  M. Head-Gordon

 Contributors to earlier versions of Q-Chem not listed above: 
 R. D. Adamson,  B. Austin,  J. Baker,  G. J. O. Beran,  K. Brandhorst,  
 S. T. Brown,  E. F. C. Byrd,  A. K. Chakraborty,  C.-L. Cheng,  
 Siu Hung Chien,  D. M. Chipman,  D. L. Crittenden,  H. Dachsel,  
 R. J. Doerksen,  A. D. Dutoi,  L. Fusti-Molnar,  W. A. Goddard III,  
 A. Golubeva-Zadorozhnaya,  S. R. Gwaltney,  G. Hawkins,  A. Heyden,  
 S. Hirata,  G. Kedziora,  F. J. Keil,  C. Kelley,  Jihan Kim,  R. A. King,  
 R. Z. Khaliullin,  P. P. Korambath,  W. Kurlancheek,  A. M. Lee,  M. S. Lee,  
 S. V. Levchenko,  Ching Yeh Lin,  D. Liotard,  R. C. Lochan,  I. Lotan,  
 P. E. Maslen,  N. Nair,  D. P. O'Neill,  D. Neuhauser,  E. Neuscamman,  
 C. M. Oana,  R. Olson,  B. Peters,  R. Peverati,  P. A. Pieniazek,  
 Y. M. Rhee,  J. Ritchie,  M. A. Rohrdanz,  E. Rosta,  N. J. Russ,  
 H. F. Schaefer III,  N. E. Schultz,  N. Shenvi,  A. C. Simmonett,  A. Sodt,  
 D. Stuck,  K. S. Thanthiriwatte,  V. Vanovschi,  Tao Wang,  A. Warshel,  
 C. F. Williams,  Q. Wu,  X. Xu,  W. Zhang

 Please cite Q-Chem as follows:
 Y. Shao et al., Mol. Phys. 113, 184-215 (2015)
 DOI: 10.1080/00268976.2014.952696

 Q-Chem 5.2.0 for Intel X86 EM64T Linux

 Parts of Q-Chem use Armadillo 8.300.2 (Tropical Shenanigans).
 http://arma.sourceforge.net/


Processing $rem in qchem/5.2/config/preferences:
	 MEM_TOTAL  96000
NAlpha2: 42
NElect   41
Mult     2

--------------------------------------------------------------
User input:
--------------------------------------------------------------
$molecule
0 2
C
H  1 1.094378
H  1 1.094463 2 106.302635
C  1 1.523455 2 109.640151 3 118.428849 0
H  4 1.094383 1 109.174729 2 64.033303 0
H  4 1.094394 1 109.176267 2 179.713915 0
C  4 1.523117 1 112.597085 2 -58.119238 0
H  7 1.090574 4 111.618171 1 -179.977610 0
H  7 1.091927 4 110.935548 1 -59.712484 0
H  7 1.091930 4 110.936390 1 59.757516 0
C  1 1.539022 2 109.241479 3 -117.731141 0
H  11 1.094177 1 108.244570 2 -64.296339 0
H  11 1.095003 1 108.017771 2 -179.549155 0
C  11 1.484174 1 113.284972 2 58.201658 0
H  14 1.080660 11 121.009055 1 -88.924853 0
H  14 1.080941 11 120.713889 1 82.367546 0
$end

$rem
JOBTYPE                   FREQ
METHOD                    wB97M-V
BASIS                     def2-TZVPD
SCF_ALGORITHM             DIIS_GDM
MAX_DIIS_CYCLES           50
THRESH_DIIS_SWITCH        11
MAX_SCF_CYCLES            150
SCF_CONVERGENCE           8
THRESH                    11
$end

--------------------------------------------------------------
 ----------------------------------------------------------------
             Standard Nuclear Orientation (Angstroms)
    I     Atom           X                Y                Z
 ----------------------------------------------------------------
    1      C      -0.0622202408     0.3387377425     0.0051945058
    2      H      -0.0607601289     0.9846797811     0.8886083147
    3      H      -0.0621145755     1.0053606680    -0.8628280298
    4      C       1.1985568676    -0.5163830994    -0.0059663981
    5      H       1.1875208996    -1.1843524711     0.8608491974
    6      H       1.1868514157    -1.1625546251    -0.8891558280
    7      C       2.4722658641     0.3187511247     0.0041140546
    8      H       3.3642094793    -0.3087157723    -0.0044609163
    9      H       2.5162139690     0.9738367437    -0.8683743231
   10      H       2.5171841679     0.9511238330     0.8931574892
   11      C      -1.3493806885    -0.5048971509    -0.0041256292
   12      H      -1.3315196222    -1.1666928901     0.8670406519
   13      H      -1.3263371867    -1.1481462451    -0.8899761640
   14      C      -2.5874126786     0.3136574167     0.0000783631
   15      H      -3.0440266660     0.6277201206     0.9278144895
   16      H      -2.9780764955     0.7285446557    -0.9184442586
 ----------------------------------------------------------------
 Molecular Point Group                 C1    NOp =  1
 Largest Abelian Subgroup              C1    NOp =  1
 Nuclear Repulsion Energy =         176.95118524 hartrees
 There are       21 alpha and       20 beta electrons
 Requested basis set is def2-TZVPD
 There are 120 shells and 284 basis functions

 Total QAlloc Memory Limit  96000 MB
 Mega-Array Size       188 MB
 MEM_STATIC part       192 MB
 A cutoff of  1.0D-11 yielded   6866 shell pairs
 There are     38982 function pairs (     47748 Cartesian)
 Smallest overlap matrix eigenvalue = 7.90E-06
 Guess from superposition of atomic densities
 Warning:  Energy on first SCF cycle will be non-variational
 SAD guess density has 40.938148 electrons

 ######################################################
 ######################################################
 Requested basis set is def2-TZVPD
 There are 120 shells and 284 basis functions
 **********************************************************************
 **                                                                  **
 **                       VIBRATIONAL ANALYSIS                       **
 **                       --------------------                       **
 **                                                                  **
 **        VIBRATIONAL FREQUENCIES (CM**-1) AND NORMAL MODES         **
 **     FORCE CONSTANTS (mDYN/ANGSTROM) AND REDUCED MASSES (AMU)     **
 **                  INFRARED INTENSITIES (KM/MOL)                   **
 **                                                                  **
 **********************************************************************
 

 Mode:                 1                      2                      3
 Frequency:        38.72                 117.18                 121.76
 Force Cnst:      0.0009                 0.0134                 0.0195
 Red. Mass:       1.0639                 1.6514                 2.2376
 IR Active:          YES                    YES                    YES
 IR Intens:        0.329                  0.001                  0.030
 Raman Active:       YES                    YES                    YES
               X      Y      Z        X      Y      Z        X      Y      Z
 C         -0.000  0.000 -0.014    0.000  0.001 -0.030   -0.000 -0.004  0.254
 H         -0.018 -0.018  0.001    0.099  0.036 -0.056   -0.007 -0.202  0.398
 H          0.017  0.018  0.001   -0.099 -0.033 -0.056    0.006  0.189  0.403
 C         -0.000  0.000 -0.004   -0.000  0.002 -0.148    0.000 -0.001  0.036
 H         -0.016 -0.012 -0.013   -0.032 -0.169 -0.280    0.138 -0.052 -0.002
 H          0.015  0.013 -0.013    0.031  0.176 -0.275   -0.136  0.051 -0.001
 C         -0.000  0.000  0.030    0.000 -0.002  0.077   -0.001  0.003 -0.140
 H         -0.000  0.000  0.039   -0.000  0.000 -0.115   -0.000  0.007 -0.338
 H          0.016  0.011  0.039   -0.007  0.253  0.267   -0.165  0.048 -0.115
 H         -0.017 -0.011  0.039    0.010 -0.261  0.261    0.161 -0.042 -0.117
 C         -0.001 -0.001 -0.052    0.000 -0.001  0.161   -0.001 -0.002  0.029
 H          0.031 -0.035 -0.071   -0.010  0.208  0.318   -0.141 -0.032  0.011
 H         -0.030  0.037 -0.073    0.011 -0.213  0.314    0.138  0.031  0.012
 C         -0.001 -0.002  0.036   -0.000 -0.000 -0.064    0.001  0.002 -0.159
 H          0.465  0.542  0.084   -0.064  0.176 -0.155    0.009  0.225 -0.230
 H         -0.439 -0.512 -0.005    0.058 -0.181 -0.171    0.005 -0.203 -0.253
 TransDip   0.007  0.007 -0.015   -0.001 -0.001 -0.000    0.001  0.002  0.005

 Mode:                 4                      5                      6
 Frequency:       177.97                 243.84                 368.08
 Force Cnst:      0.0477                 0.0393                 0.1542
 Red. Mass:       2.5584                 1.1210                 1.9313
 IR Active:          YES                    YES                    YES
 IR Intens:        0.169                  0.000                  8.066
 Raman Active:       YES                    YES                    YES
               X      Y      Z        X      Y      Z        X      Y      Z
 C          0.002  0.196  0.005   -0.000 -0.000  0.045    0.115 -0.054  0.000
 H         -0.003  0.183  0.014    0.043 -0.094  0.113    0.221 -0.051 -0.002
 H         -0.000  0.189  0.001   -0.044  0.091  0.115    0.223 -0.045  0.007
 C         -0.060  0.097  0.003   -0.000  0.001 -0.084    0.094 -0.127 -0.001
 H         -0.159  0.091 -0.002    0.001 -0.089 -0.154    0.136 -0.117  0.006
 H         -0.162  0.090  0.008   -0.002  0.093 -0.151    0.135 -0.117 -0.008
 C          0.104 -0.160 -0.004    0.000 -0.000  0.013   -0.008  0.046  0.000
 H         -0.040 -0.366 -0.007    0.000 -0.008  0.579    0.111  0.216  0.002
 H          0.254 -0.173 -0.006    0.313 -0.344 -0.229   -0.134  0.058  0.004
 H          0.258 -0.172 -0.003   -0.313  0.350 -0.220   -0.133  0.059 -0.003
 C          0.061  0.091 -0.000   -0.000 -0.000  0.031   -0.030  0.145  0.000
 H          0.165  0.085 -0.006   -0.016  0.010  0.039   -0.061  0.128 -0.009
 H          0.167  0.091  0.001    0.015 -0.011  0.039   -0.066  0.131  0.006
 C         -0.108 -0.172 -0.003    0.000 -0.000 -0.010   -0.135  0.025  0.003
 H         -0.222 -0.324 -0.008   -0.017  0.029 -0.029   -0.414 -0.331 -0.016
 H         -0.254 -0.325 -0.009    0.017 -0.030 -0.031   -0.455 -0.341 -0.024
 TransDip  -0.012 -0.006 -0.001   -0.000 -0.000 -0.000   -0.068 -0.060 -0.006

 Mode:                 7                      8                      9
 Frequency:       400.42                 555.83                 732.48
 Force Cnst:      0.2936                 0.3225                 0.3359
 Red. Mass:       3.1083                 1.7716                 1.0625
 IR Active:          YES                    YES                    YES
 IR Intens:        0.026                 49.748                  2.995
 Raman Active:       YES                    YES                    YES
               X      Y      Z        X      Y      Z        X      Y      Z
 C         -0.084 -0.106 -0.002   -0.056 -0.030 -0.001    0.001  0.000  0.048
 H         -0.168 -0.091 -0.011   -0.136 -0.032  0.000    0.010  0.387 -0.239
 H         -0.168 -0.093  0.008   -0.131 -0.023  0.006   -0.008 -0.379 -0.249
 C          0.137  0.112  0.001   -0.039  0.056  0.001    0.000 -0.001  0.035
 H          0.212  0.095 -0.009   -0.038  0.051 -0.001    0.045 -0.287 -0.188
 H          0.212  0.094  0.012   -0.037  0.047  0.006   -0.045  0.291 -0.181
 C          0.268  0.021  0.000   -0.007 -0.007 -0.000    0.000 -0.000  0.005
 H          0.126 -0.185 -0.002   -0.064 -0.089 -0.002    0.001  0.002 -0.037
 H          0.425  0.001 -0.006    0.054 -0.014 -0.002   -0.081 -0.087 -0.066
 H          0.425 -0.000  0.006    0.055 -0.015  0.002    0.079  0.089 -0.064
 C         -0.194 -0.076 -0.001    0.014 -0.066 -0.004   -0.001 -0.000  0.038
 H         -0.280 -0.075  0.001   -0.030 -0.061  0.000   -0.049 -0.300 -0.190
 H         -0.280 -0.076 -0.002   -0.045 -0.049 -0.017    0.050  0.306 -0.185
 C         -0.149  0.059  0.001    0.180  0.154  0.012   -0.001 -0.001  0.005
 H         -0.121  0.104  0.001   -0.358 -0.525 -0.032   -0.097  0.089 -0.075
 H         -0.113  0.100  0.003   -0.368 -0.559 -0.068    0.099 -0.087 -0.078
 TransDip  -0.004 -0.003 -0.000   -0.158 -0.161 -0.013    0.001  0.000 -0.055

 Mode:                10                     11                     12
 Frequency:       760.41                 855.10                 906.83
 Force Cnst:      0.3752                 0.4954                 0.8460
 Red. Mass:       1.1014                 1.1499                 1.7460
 IR Active:          YES                    YES                    YES
 IR Intens:        0.102                  0.326                  1.416
 Raman Active:       YES                    YES                    YES
               X      Y      Z        X      Y      Z        X      Y      Z
 C         -0.001 -0.002  0.006   -0.001 -0.006  0.085   -0.070  0.146  0.005
 H         -0.161  0.024 -0.013    0.033  0.283 -0.131   -0.163  0.141  0.007
 H          0.156 -0.028 -0.014   -0.038 -0.290 -0.137   -0.152  0.125 -0.011
 C         -0.001  0.000  0.064   -0.001  0.003 -0.034    0.017 -0.112 -0.002
 H         -0.036 -0.331 -0.197    0.232  0.123  0.064   -0.191 -0.103  0.001
 H          0.036  0.338 -0.188   -0.226 -0.120  0.062   -0.212 -0.104 -0.002
 C         -0.000 -0.000  0.017   -0.002  0.001 -0.043    0.140 -0.034 -0.002
 H         -0.003 -0.002 -0.106   -0.009 -0.012  0.161    0.536  0.535  0.013
 H         -0.178 -0.155 -0.110    0.254  0.189  0.116   -0.266  0.071  0.051
 H          0.182  0.157 -0.106   -0.242 -0.194  0.112   -0.284  0.058 -0.042
 C          0.001  0.000 -0.060    0.002  0.002 -0.012   -0.050 -0.064 -0.004
 H         -0.052  0.326  0.191   -0.240  0.064  0.043   -0.004 -0.035  0.014
 H          0.050 -0.333  0.186    0.236 -0.063  0.044    0.009 -0.055 -0.005
 C          0.002  0.003 -0.021    0.003  0.004 -0.049    0.024  0.017  0.001
 H          0.212 -0.180  0.146    0.269 -0.197  0.153   -0.004 -0.037  0.004
 H         -0.223  0.164  0.150   -0.281  0.177  0.154   -0.010 -0.030 -0.003
 TransDip  -0.002 -0.000 -0.010   -0.001 -0.001  0.018   -0.037  0.008  0.000

 Mode:                13                     14                     15
 Frequency:       981.49                1000.12                1073.64
 Force Cnst:      0.6489                 2.4968                 1.5384
 Red. Mass:       1.1432                 4.2367                 2.2652
 IR Active:          YES                    YES                    YES
 IR Intens:        0.371                  0.731                  0.085
 Raman Active:       YES                    YES                    YES
               X      Y      Z        X      Y      Z        X      Y      Z
 C          0.013  0.007  0.010   -0.277 -0.181 -0.003   -0.144  0.006 -0.000
 H         -0.342  0.037 -0.012   -0.334 -0.176 -0.008   -0.394  0.029 -0.012
 H          0.377 -0.022 -0.014   -0.212 -0.170  0.007   -0.390  0.030  0.014
 C          0.005  0.005  0.044   -0.121 -0.134  0.007    0.221  0.055  0.001
 H          0.301 -0.113 -0.045    0.012 -0.180 -0.022    0.404  0.043 -0.006
 H         -0.292  0.127 -0.043   -0.080 -0.136  0.002    0.401  0.045  0.006
 C         -0.008 -0.003 -0.056    0.144  0.113 -0.007   -0.103 -0.141 -0.002
 H         -0.012 -0.011  0.142    0.113  0.057  0.022   -0.001  0.012  0.001
 H          0.204  0.163  0.085    0.292  0.130  0.013   -0.301 -0.122  0.005
 H         -0.215 -0.174  0.082    0.229  0.079  0.014   -0.303 -0.123 -0.008
 C         -0.004 -0.011 -0.060    0.119  0.295 -0.002    0.084  0.058  0.002
 H          0.255  0.139  0.050    0.172  0.293 -0.000    0.120  0.053 -0.005
 H         -0.255 -0.164  0.046    0.056  0.272  0.008    0.106  0.059  0.003
 C         -0.007  0.002  0.055    0.088 -0.096  0.005   -0.025  0.013 -0.001
 H         -0.225  0.148 -0.105    0.125 -0.042 -0.001   -0.023  0.035 -0.004
 H          0.218 -0.126 -0.103    0.190 -0.086 -0.030   -0.024  0.033  0.005
 TransDip   0.001 -0.002  0.019   -0.012  0.025  0.002   -0.009  0.000  0.000

 Mode:                16                     17                     18
 Frequency:      1086.44                1118.76                1193.62
 Force Cnst:      1.9256                 1.4806                 1.5127
 Red. Mass:       2.7688                 2.0078                 1.8021
 IR Active:          YES                    YES                    YES
 IR Intens:        1.491                  2.098                  0.287
 Raman Active:       YES                    YES                    YES
               X      Y      Z        X      Y      Z        X      Y      Z
 C          0.007 -0.108  0.000    0.089 -0.147 -0.005    0.001  0.008 -0.134
 H         -0.086 -0.118  0.005   -0.050 -0.137 -0.010   -0.081 -0.277  0.083
 H         -0.102 -0.126 -0.011   -0.029 -0.122  0.012    0.066  0.286  0.088
 C         -0.079  0.040 -0.001   -0.024  0.186  0.005    0.001 -0.007  0.127
 H         -0.253  0.035 -0.005   -0.295  0.174 -0.009    0.049 -0.269 -0.080
 H         -0.246  0.027  0.008   -0.308  0.188  0.009   -0.046  0.261 -0.075
 C          0.054 -0.001  0.001    0.036 -0.106 -0.003   -0.001  0.005 -0.082
 H          0.148  0.138 -0.001    0.286  0.272  0.007   -0.008 -0.009  0.159
 H         -0.055  0.038  0.022   -0.335  0.009  0.060    0.191  0.182  0.070
 H         -0.049  0.044 -0.024   -0.345  0.002 -0.055   -0.170 -0.185  0.070
 C          0.256 -0.094 -0.001   -0.007  0.091  0.006    0.003 -0.009  0.151
 H          0.398 -0.146 -0.039   -0.301  0.059 -0.008    0.069 -0.312 -0.086
 H          0.390 -0.142  0.035   -0.337  0.080  0.000   -0.076  0.297 -0.081
 C         -0.205  0.146  0.001    0.036 -0.063 -0.004   -0.001  0.007 -0.092
 H         -0.275  0.235 -0.046    0.086 -0.043  0.011    0.251 -0.168  0.096
 H         -0.272  0.223  0.047    0.072 -0.033 -0.004   -0.268  0.165  0.097
 TransDip  -0.023  0.031  0.001   -0.039  0.025  0.000    0.003 -0.000 -0.017

 Mode:                19                     20                     21
 Frequency:      1256.31                1262.76                1319.16
 Force Cnst:      1.2280                 1.2446                 1.1706
 Red. Mass:       1.3206                 1.3248                 1.1418
 IR Active:          YES                    YES                    YES
 IR Intens:        0.433                  0.457                  1.372
 Raman Active:       YES                    YES                    YES
               X      Y      Z        X      Y      Z        X      Y      Z
 C         -0.019 -0.013 -0.018   -0.078 -0.039 -0.001    0.008 -0.003 -0.087
 H          0.426 -0.049  0.010    0.335 -0.039 -0.001   -0.179 -0.160  0.025
 H         -0.219  0.022  0.011    0.521 -0.039 -0.002    0.106  0.152  0.028
 C         -0.012  0.018  0.096   -0.050  0.067 -0.022    0.007 -0.001 -0.008
 H         -0.225 -0.166 -0.050    0.289  0.093  0.005    0.345  0.008 -0.002
 H          0.321  0.196 -0.042    0.132  0.006  0.017   -0.403 -0.009 -0.002
 C          0.007 -0.013 -0.088    0.027 -0.053  0.022   -0.001  0.003  0.046
 H          0.037  0.028  0.169    0.142  0.118 -0.042   -0.012 -0.010 -0.080
 H          0.122  0.189  0.077   -0.156 -0.020  0.029   -0.068 -0.094 -0.031
 H         -0.188 -0.178  0.049   -0.079  0.074 -0.060    0.069  0.086 -0.020
 C         -0.025  0.004 -0.071   -0.093 -0.004  0.022   -0.006  0.004  0.014
 H         -0.212  0.140  0.036    0.493  0.002  0.009   -0.498 -0.032 -0.006
 H          0.442 -0.111  0.027    0.360  0.082 -0.025    0.547  0.046 -0.005
 C          0.003 -0.000  0.066    0.015  0.014 -0.017   -0.000 -0.002  0.046
 H         -0.147  0.103 -0.047    0.093 -0.080  0.047   -0.090  0.077 -0.024
 H          0.175 -0.122 -0.063    0.005 -0.015 -0.018    0.091 -0.075 -0.025
 TransDip  -0.006  0.003  0.020   -0.019  0.009 -0.005    0.004  0.002  0.037

 Mode:                22                     23                     24
 Frequency:      1324.15                1339.88                1389.74
 Force Cnst:      1.0892                 1.4585                 1.8086
 Red. Mass:       1.0543                 1.3788                 1.5894
 IR Active:          YES                    YES                    YES
 IR Intens:        0.036                  1.794                  0.092
 Raman Active:       YES                    YES                    YES
               X      Y      Z        X      Y      Z        X      Y      Z
 C         -0.004  0.002 -0.023    0.076 -0.040  0.006   -0.150 -0.007 -0.001
 H          0.518 -0.042  0.009   -0.262 -0.024 -0.004    0.429  0.041 -0.030
 H         -0.486  0.045  0.011   -0.324 -0.046  0.000    0.434  0.043  0.031
 C         -0.003  0.000  0.039    0.086 -0.007  0.001    0.163  0.004 -0.000
 H          0.439 -0.076 -0.013   -0.360 -0.001  0.003   -0.462  0.001 -0.007
 H         -0.412  0.076 -0.011   -0.343  0.004 -0.003   -0.463  0.000  0.007
 C          0.001 -0.002  0.029   -0.009  0.038 -0.001   -0.010  0.039  0.001
 H          0.005  0.005 -0.010   -0.134 -0.137  0.003   -0.139 -0.140 -0.002
 H         -0.067 -0.049 -0.007   -0.018 -0.056 -0.063   -0.053 -0.125 -0.116
 H          0.067  0.053 -0.010   -0.020 -0.065  0.064   -0.053 -0.128  0.113
 C          0.004 -0.001 -0.035   -0.129  0.021 -0.001    0.046 -0.002  0.000
 H          0.196  0.064  0.006    0.528  0.108  0.050   -0.124 -0.060 -0.036
 H         -0.226 -0.071  0.006    0.406  0.100 -0.044   -0.111 -0.058  0.033
 C         -0.000  0.000 -0.008    0.009  0.006 -0.006   -0.004  0.005  0.001
 H          0.007 -0.012 -0.002    0.081 -0.067  0.047    0.010 -0.015  0.014
 H         -0.009  0.013 -0.000    0.060 -0.040 -0.042    0.013 -0.016 -0.015
 TransDip  -0.002 -0.001  0.005    0.037  0.022 -0.003    0.004 -0.009  0.000

 Mode:                25                     26                     27
 Frequency:      1408.53                1459.88                1480.46
 Force Cnst:      1.5162                 1.4247                 1.4138
 Red. Mass:       1.2971                 1.1346                 1.0948
 IR Active:          YES                    YES                    YES
 IR Intens:        3.119                  1.471                  0.192
 Raman Active:       YES                    YES                    YES
               X      Y      Z        X      Y      Z        X      Y      Z
 C         -0.012 -0.008 -0.000    0.012 -0.014 -0.000    0.009 -0.059 -0.001
 H          0.022 -0.015  0.003   -0.036  0.131 -0.098   -0.014  0.402 -0.318
 H          0.021 -0.015 -0.003   -0.035  0.129  0.101   -0.013  0.394  0.328
 C          0.055  0.009  0.000   -0.014 -0.004  0.000   -0.001  0.040  0.000
 H         -0.128  0.027  0.007    0.036 -0.001  0.002   -0.012 -0.285 -0.236
 H         -0.129  0.027 -0.007    0.035 -0.001 -0.002   -0.011 -0.291  0.229
 C         -0.133 -0.072 -0.001    0.003  0.001  0.000   -0.000 -0.008 -0.000
 H          0.277  0.482  0.006    0.004  0.002 -0.000   -0.023 -0.031  0.000
 H          0.513  0.139  0.173   -0.004 -0.004 -0.004   -0.001  0.090  0.071
 H          0.512  0.144 -0.170   -0.004 -0.004  0.004    0.000  0.092 -0.069
 C         -0.008  0.003  0.000    0.016  0.031  0.000   -0.020  0.025  0.000
 H          0.032  0.008  0.004   -0.016 -0.261 -0.207    0.045 -0.141 -0.121
 H          0.032  0.008 -0.004   -0.009 -0.265  0.201    0.040 -0.143  0.118
 C         -0.003  0.003  0.000   -0.079  0.059  0.001    0.034 -0.022 -0.000
 H          0.021 -0.018  0.017    0.371 -0.316  0.339   -0.131  0.114 -0.125
 H          0.022 -0.016 -0.018    0.396 -0.282 -0.345   -0.141  0.100  0.127
 TransDip   0.038  0.042  0.001   -0.031 -0.024  0.000   -0.007  0.012 -0.000

 Mode:                28                     29                     30
 Frequency:      1481.72                1489.17                1491.32
 Force Cnst:      1.4347                 1.3571                 1.4251
 Red. Mass:       1.1091                 1.0386                 1.0876
 IR Active:          YES                    YES                    YES
 IR Intens:        0.391                  7.735                  0.846
 Raman Active:       YES                    YES                    YES
               X      Y      Z        X      Y      Z        X      Y      Z
 C          0.004 -0.014  0.000    0.000  0.000  0.001   -0.008  0.040  0.001
 H         -0.018  0.057 -0.050   -0.032  0.001 -0.003    0.001 -0.232  0.189
 H         -0.018  0.055  0.051    0.032 -0.002 -0.004    0.001 -0.228 -0.194
 C         -0.013 -0.041 -0.001   -0.000  0.000 -0.023    0.029 -0.009 -0.000
 H          0.031  0.316  0.259    0.033  0.033  0.000   -0.058 -0.019 -0.007
 H          0.032  0.322 -0.250   -0.033 -0.034  0.000   -0.058 -0.020  0.006
 C         -0.007  0.017  0.000   -0.000  0.001 -0.048    0.015 -0.032 -0.000
 H          0.093  0.142  0.003    0.000 -0.009  0.702   -0.153 -0.246 -0.003
 H          0.043 -0.220 -0.169   -0.478  0.134  0.049   -0.074  0.371  0.287
 H          0.045 -0.225  0.164    0.478 -0.135  0.045   -0.074  0.378 -0.277
 C         -0.030  0.059  0.001    0.000 -0.000  0.003   -0.019  0.049  0.001
 H          0.068 -0.314 -0.272   -0.008 -0.004 -0.000    0.036 -0.271 -0.232
 H          0.060 -0.318  0.264    0.008  0.005 -0.001    0.031 -0.275  0.226
 C          0.042 -0.025 -0.001   -0.000  0.000  0.000    0.021 -0.010 -0.000
 H         -0.138  0.120 -0.137    0.001 -0.000  0.001   -0.052  0.044 -0.055
 H         -0.151  0.104  0.138    0.000 -0.001 -0.000   -0.058  0.038  0.055
 TransDip   0.016 -0.012 -0.000    0.000 -0.001  0.089   -0.029 -0.007 -0.000

 Mode:                31                     32                     33
 Frequency:      1503.86                3025.66                3031.73
 Force Cnst:      1.4613                 5.7062                 5.7342
 Red. Mass:       1.0967                 1.0579                 1.0589
 IR Active:          YES                    YES                    YES
 IR Intens:        8.188                  8.952                  0.109
 Raman Active:       YES                    YES                    YES
               X      Y      Z        X      Y      Z        X      Y      Z
 C         -0.009 -0.041 -0.001    0.000  0.023  0.002    0.001 -0.043  0.002
 H          0.010  0.264 -0.210   -0.000 -0.154 -0.222   -0.001  0.245  0.357
 H          0.011  0.259  0.216   -0.001 -0.137  0.190   -0.001  0.273 -0.376
 C          0.009 -0.066 -0.001    0.001  0.004  0.000    0.000  0.051 -0.000
 H         -0.028  0.335  0.292   -0.002 -0.023  0.033   -0.004 -0.311  0.427
 H         -0.028  0.342 -0.284   -0.003 -0.022 -0.032   -0.005 -0.293 -0.425
 C          0.016 -0.024 -0.000   -0.001 -0.001 -0.000    0.005 -0.002  0.000
 H         -0.103 -0.179 -0.002    0.008 -0.007 -0.000   -0.061  0.050  0.001
 H         -0.052  0.270  0.209    0.000  0.010 -0.014    0.003 -0.011  0.014
 H         -0.052  0.275 -0.202    0.000  0.010  0.015    0.003 -0.011 -0.015
 C          0.013 -0.029 -0.000    0.002 -0.062 -0.011    0.001 -0.013 -0.003
 H         -0.017  0.156  0.135   -0.010  0.332 -0.464   -0.003  0.066 -0.093
 H         -0.015  0.159 -0.131   -0.017  0.418  0.603   -0.005  0.093  0.134
 C         -0.008  0.003  0.000   -0.000 -0.000  0.000   -0.000  0.000  0.000
 H          0.011 -0.010  0.014    0.000 -0.002  0.002    0.001 -0.001 -0.004
 H          0.013 -0.008 -0.014   -0.000  0.001 -0.007    0.001 -0.001  0.003
 TransDip  -0.015  0.090  0.001    0.026 -0.091 -0.015    0.010 -0.001 -0.003

 Mode:                34                     35                     36
 Frequency:      3040.27                3048.01                3052.35
 Force Cnst:      5.7734                 5.6733                 6.0354
 Red. Mass:       1.0601                 1.0365                 1.0995
 IR Active:          YES                    YES                    YES
 IR Intens:       69.810                 39.677                  2.072
 Raman Active:       YES                    YES                    YES
               X      Y      Z        X      Y      Z        X      Y      Z
 C          0.000  0.046 -0.004    0.000 -0.010  0.002    0.000 -0.003 -0.062
 H         -0.001 -0.247 -0.361   -0.002  0.049  0.072   -0.000  0.306  0.413
 H          0.000 -0.296  0.407   -0.002  0.070 -0.095    0.001 -0.272  0.346
 C          0.002  0.045  0.002    0.001 -0.003 -0.001   -0.000 -0.002  0.053
 H         -0.004 -0.269  0.370   -0.002  0.015 -0.024    0.004  0.261 -0.333
 H         -0.004 -0.270 -0.390   -0.001  0.027  0.040   -0.004 -0.237 -0.317
 C         -0.002 -0.011 -0.000   -0.037 -0.034 -0.000   -0.001 -0.000 -0.010
 H          0.010 -0.007 -0.000    0.399 -0.297 -0.004    0.011 -0.008 -0.002
 H          0.003  0.066 -0.094    0.014  0.356 -0.489   -0.002 -0.039  0.051
 H          0.003  0.065  0.096    0.015  0.340  0.493    0.003  0.052  0.072
 C         -0.001  0.020  0.007   -0.000 -0.002 -0.002    0.000 -0.007  0.039
 H          0.001 -0.089  0.125    0.001  0.004 -0.006   -0.007  0.221 -0.290
 H          0.004 -0.148 -0.211    0.000  0.019  0.027    0.006 -0.138 -0.184
 C          0.000 -0.000 -0.000   -0.000  0.000  0.000   -0.000  0.000 -0.002
 H         -0.002  0.003  0.006    0.001 -0.001 -0.003   -0.005  0.006  0.012
 H         -0.000  0.001 -0.003    0.000 -0.001  0.002    0.004 -0.007  0.012
 TransDip  -0.007  0.267  0.008   -0.147 -0.138 -0.003   -0.003 -0.030  0.035

 Mode:                37                     38                     39
 Frequency:      3063.54                3085.03                3111.61
 Force Cnst:      6.0981                 6.2008                 6.2900
 Red. Mass:       1.1028                 1.1058                 1.1026
 IR Active:          YES                    YES                    YES
 IR Intens:        0.607                 50.262                 62.466
 Raman Active:       YES                    YES                    YES
               X      Y      Z        X      Y      Z        X      Y      Z
 C         -0.000  0.001  0.010   -0.000  0.000 -0.068   -0.000  0.000 -0.014
 H          0.003 -0.053 -0.073    0.000  0.298  0.405   -0.003  0.062  0.083
 H         -0.003  0.039 -0.049    0.000 -0.304  0.392    0.003 -0.063  0.080
 C          0.000  0.000  0.060   -0.000  0.000 -0.037   -0.000  0.000 -0.029
 H          0.005  0.272 -0.348    0.002 -0.172  0.220   -0.003 -0.132  0.170
 H         -0.005 -0.274 -0.370   -0.001  0.166  0.224    0.003  0.127  0.173
 C          0.000 -0.000 -0.017    0.000 -0.000  0.025   -0.000  0.002 -0.087
 H         -0.002  0.002 -0.005   -0.001  0.000  0.008    0.005 -0.004 -0.019
 H         -0.003 -0.079  0.103    0.003  0.114 -0.150   -0.023 -0.404  0.525
 H          0.003  0.077  0.106   -0.003 -0.110 -0.153    0.023  0.389  0.533
 C         -0.000  0.008 -0.068   -0.000  0.004 -0.048    0.000  0.000 -0.005
 H          0.011 -0.355  0.468    0.003 -0.239  0.313   -0.001 -0.024  0.031
 H         -0.011  0.260  0.352   -0.004  0.196  0.265    0.001  0.021  0.027
 C         -0.000 -0.000  0.004   -0.000 -0.000  0.004   -0.000 -0.000  0.001
 H          0.010 -0.011 -0.025    0.008 -0.009 -0.022    0.001 -0.001 -0.003
 H         -0.008  0.013 -0.023   -0.006  0.011 -0.020   -0.001  0.001 -0.003
 TransDip  -0.001  0.023 -0.009   -0.001  0.010 -0.227   -0.001  0.004 -0.253

 Mode:                40                     41                     42
 Frequency:      3119.17                3165.80                3265.30
 Force Cnst:      6.3131                 6.2063                 7.0269
 Red. Mass:       1.1013                 1.0510                 1.1186
 IR Active:          YES                    YES                    YES
 IR Intens:       38.617                 15.957                 12.166
 Raman Active:       YES                    YES                    YES
               X      Y      Z        X      Y      Z        X      Y      Z
 C          0.000  0.001  0.000    0.000  0.001  0.000   -0.000  0.000 -0.001
 H          0.002 -0.007 -0.009   -0.001 -0.004 -0.006    0.001  0.003  0.004
 H          0.002 -0.006  0.008   -0.001 -0.005  0.006   -0.001 -0.003  0.004
 C         -0.000  0.007  0.000   -0.000 -0.000  0.000   -0.000  0.000 -0.000
 H         -0.001 -0.038  0.050    0.000 -0.001  0.001    0.000 -0.001  0.001
 H         -0.002 -0.038 -0.054    0.000 -0.001 -0.001   -0.000  0.001  0.001
 C         -0.055  0.073  0.002    0.000  0.000  0.000   -0.000  0.000 -0.000
 H          0.704 -0.499 -0.007   -0.001  0.000  0.000    0.000 -0.000  0.000
 H         -0.023 -0.192  0.281   -0.000 -0.001  0.001   -0.000 -0.000  0.000
 H         -0.023 -0.190 -0.293   -0.000 -0.001 -0.001    0.000  0.000  0.000
 C          0.000  0.001 -0.000    0.003 -0.001 -0.000   -0.000  0.000 -0.006
 H         -0.000 -0.004  0.005   -0.002  0.001 -0.000    0.003 -0.025  0.033
 H         -0.000 -0.003 -0.004   -0.001  0.000 -0.000   -0.003  0.022  0.030
 C         -0.000 -0.000  0.000   -0.048  0.040 -0.001    0.004  0.005 -0.100
 H          0.000  0.000  0.000    0.289 -0.192 -0.604   -0.305  0.207  0.609
 H          0.000  0.000 -0.000    0.253 -0.264  0.614    0.256 -0.267  0.586
 TransDip  -0.128  0.153  0.004   -0.107  0.071 -0.003    0.006  0.005 -0.111

 STANDARD THERMODYNAMIC QUANTITIES AT   298.15 K  AND     1.00 ATM

   This Molecule has  0 Imaginary Frequencies
   Zero point vibrational energy:       91.418 kcal/mol

   Atom    1 Element C  Has Mass   12.00000
   Atom    2 Element H  Has Mass    1.00783
   Atom    3 Element H  Has Mass    1.00783
   Atom    4 Element C  Has Mass   12.00000
   Atom    5 Element H  Has Mass    1.00783
   Atom    6 Element H  Has Mass    1.00783
   Atom    7 Element C  Has Mass   12.00000
   Atom    8 Element H  Has Mass    1.00783
   Atom    9 Element H  Has Mass    1.00783
   Atom   10 Element H  Has Mass    1.00783
   Atom   11 Element C  Has Mass   12.00000
   Atom   12 Element H  Has Mass    1.00783
   Atom   13 Element H  Has Mass    1.00783
   Atom   14 Element C  Has Mass   12.00000
   Atom   15 Element H  Has Mass    1.00783
   Atom   16 Element H  Has Mass    1.00783
   Molecular Mass:    71.086130 amu
   Principal axes and moments of inertia in amu*Bohr^2:
                             1           2           3
    Eigenvalues --      101.16986   891.15830   935.70306
          X               1.00000    -0.00044    -0.00020
          Y               0.00044     0.99999    -0.00394
          Z               0.00020     0.00394     0.99999
   Rotational Symmetry Number is   1
   The Molecule is an Asymmetric Top
   Translational Enthalpy:        0.889 kcal/mol
   Rotational Enthalpy:           0.889 kcal/mol
   Vibrational Enthalpy:         94.408 kcal/mol
   gas constant (RT):             0.592 kcal/mol
   Translational Entropy:        38.701  cal/mol.K
   Rotational Entropy:           25.937  cal/mol.K
   Vibrational Entropy:          19.741  cal/mol.K

   Total Enthalpy:               96.778 kcal/mol
   Total Entropy:                84.378  cal/mol.K

 Total job time:  8611.63s(wall), 109547.30s(cpu)

        *************************************************************
        *                                                           *
        *  Thank you very much for using Q-Chem.  Have a nice day.  *
        *                                                           *
        *************************************************************


