 Entering Gaussian System, Link 0=g09
 Initial command:
 /cm/shared/c3ddb/gaussian/09.d01/g09/l1.exe "/scratch/users/mattsj/g09/a2299-8065939/Gau-51956.inp" -scrdir="/scratch/users/mattsj/g09/a2299-8065939/"
 Entering Link 1 = /cm/shared/c3ddb/gaussian/09.d01/g09/l1.exe PID=     51957.
  
 Copyright (c) 1988,1990,1992,1993,1995,1998,2003,2009,2013,
            Gaussian, Inc.  All Rights Reserved.
  
 This is part of the Gaussian(R) 09 program.  It is based on
 the Gaussian(R) 03 system (copyright 2003, Gaussian, Inc.),
 the Gaussian(R) 98 system (copyright 1998, Gaussian, Inc.),
 the Gaussian(R) 94 system (copyright 1995, Gaussian, Inc.),
 the Gaussian 92(TM) system (copyright 1992, Gaussian, Inc.),
 the Gaussian 90(TM) system (copyright 1990, Gaussian, Inc.),
 the Gaussian 88(TM) system (copyright 1988, Gaussian, Inc.),
 the Gaussian 86(TM) system (copyright 1986, Carnegie Mellon
 University), and the Gaussian 82(TM) system (copyright 1983,
 Carnegie Mellon University). Gaussian is a federally registered
 trademark of Gaussian, Inc.
  
 This software contains proprietary and confidential information,
 including trade secrets, belonging to Gaussian, Inc.
  
 This software is provided under written license and may be
 used, copied, transmitted, or stored only in accord with that
 written license.
  
 The following legend is applicable only to US Government
 contracts under FAR:
  
                    RESTRICTED RIGHTS LEGEND
  
 Use, reproduction and disclosure by the US Government is
 subject to restrictions as set forth in subparagraphs (a)
 and (c) of the Commercial Computer Software - Restricted
 Rights clause in FAR 52.227-19.
  
 Gaussian, Inc.
 340 Quinnipiac St., Bldg. 40, Wallingford CT 06492
  
  
 ---------------------------------------------------------------
 Warning -- This program may not be used in any manner that
 competes with the business of Gaussian, Inc. or will provide
 assistance to any competitor of Gaussian, Inc.  The licensee
 of this program is prohibited from giving any competitor of
 Gaussian, Inc. access to this program.  By using this program,
 the user acknowledges that Gaussian, Inc. is engaged in the
 business of creating and licensing software in the field of
 computational chemistry and represents and warrants to the
 licensee that it is not a competitor of Gaussian, Inc. and that
 it will not use this program in any manner prohibited above.
 ---------------------------------------------------------------
  

 Cite this work as:
 Gaussian 09, Revision D.01,
 M. J. Frisch, G. W. Trucks, H. B. Schlegel, G. E. Scuseria, 
 M. A. Robb, J. R. Cheeseman, G. Scalmani, V. Barone, B. Mennucci, 
 G. A. Petersson, H. Nakatsuji, M. Caricato, X. Li, H. P. Hratchian, 
 A. F. Izmaylov, J. Bloino, G. Zheng, J. L. Sonnenberg, M. Hada, 
 M. Ehara, K. Toyota, R. Fukuda, J. Hasegawa, M. Ishida, T. Nakajima, 
 Y. Honda, O. Kitao, H. Nakai, T. Vreven, J. A. Montgomery, Jr., 
 J. E. Peralta, F. Ogliaro, M. Bearpark, J. J. Heyd, E. Brothers, 
 K. N. Kudin, V. N. Staroverov, T. Keith, R. Kobayashi, J. Normand, 
 K. Raghavachari, A. Rendell, J. C. Burant, S. S. Iyengar, J. Tomasi, 
 M. Cossi, N. Rega, J. M. Millam, M. Klene, J. E. Knox, J. B. Cross, 
 V. Bakken, C. Adamo, J. Jaramillo, R. Gomperts, R. E. Stratmann, 
 O. Yazyev, A. J. Austin, R. Cammi, C. Pomelli, J. W. Ochterski, 
 R. L. Martin, K. Morokuma, V. G. Zakrzewski, G. A. Voth, 
 P. Salvador, J. J. Dannenberg, S. Dapprich, A. D. Daniels, 
 O. Farkas, J. B. Foresman, J. V. Ortiz, J. Cioslowski, 
 and D. J. Fox, Gaussian, Inc., Wallingford CT, 2013.
 
 ******************************************
 Gaussian 09:  AS64L-G09RevD.01 24-Apr-2013
                23-Apr-2019 
 ******************************************
 %chk=check.chk
 %mem=1500mb
 %nproc=8
 Will use up to    8 processors via shared memory.
 ---------------------------------------------------
 #P opt=(calcfc, noeigentest, tight) cbs-qb3 scf=xqc
 ---------------------------------------------------
 1/7=10,10=4,11=1,14=-1,18=20,19=15,26=3,38=1/1,3;
 2/9=110,12=2,17=6,18=5,40=1/2;
 3/5=4,6=6,7=700,11=2,16=1,25=1,30=1,71=2,74=-5,140=1/1,2,3;
 4//1;
 5/5=2,8=3,13=1,38=5/2,8;
 8/6=4,10=90,11=11/1;
 11/6=1,8=1,9=11,15=111,16=1/1,2,10;
 10/6=1,13=1/2;
 6/7=2,8=2,9=2,10=2,28=1/1;
 7/10=1,18=20,25=1/1,2,3,16;
 1/7=10,10=4,11=1,14=-1,18=20,19=15,26=3/3(2);
 2/9=110/2;
 99//99;
 2/9=110/2;
 3/5=4,6=6,7=700,11=2,16=1,25=1,30=1,71=1,74=-5/1,2,3;
 4/5=5,16=3,69=1/1;
 5/5=2,8=3,13=1,38=5/2,8;
 7//1,2,3,16;
 1/7=10,11=1,14=-1,18=20,19=15,26=3/3(-5);
 2/9=110/2;
 6/7=2,8=2,9=2,10=2,19=2,28=1/1;
 99/9=1/99;
 Leave Link    1 at Tue Apr 23 16:17:22 2019, MaxMem=   196608000 cpu:         3.7
 (Enter /cm/shared/c3ddb/gaussian/09.d01/g09/l101.exe)
 ----
 name
 ----
 Symbolic Z-matrix:
 Charge =  0 Multiplicity = 1
 O                    -0.47598  -0.42853   0.36653 
 O                    -1.72513   0.20912  -0.13837 
 C                     0.56704   0.43709   0.13971 
 C                     1.79096  -0.0443   -0.11326 
 H                     0.31802   1.49167   0.26253 
 H                     2.64055   0.63314  -0.13525 
 H                     1.96603  -1.1109   -0.23516 
 H                    -1.8497   -0.30054  -0.95842 
 
 NAtoms=      8 NQM=        8 NQMF=       0 NMMI=      0 NMMIF=      0
                NMic=       0 NMicF=      0.
                    Isotopes and Nuclear Properties:
 (Nuclear quadrupole moments (NQMom) in fm**2, nuclear magnetic moments (NMagM)
  in nuclear magnetons)

  Atom         1           2           3           4           5           6           7           8
 IAtWgt=          16          16          12          12           1           1           1           1
 AtmWgt=  15.9949146  15.9949146  12.0000000  12.0000000   1.0078250   1.0078250   1.0078250   1.0078250
 NucSpn=           0           0           0           0           1           1           1           1
 AtZEff=   0.0000000   0.0000000   0.0000000   0.0000000   0.0000000   0.0000000   0.0000000   0.0000000
 NQMom=    0.0000000   0.0000000   0.0000000   0.0000000   0.0000000   0.0000000   0.0000000   0.0000000
 NMagM=    0.0000000   0.0000000   0.0000000   0.0000000   2.7928460   2.7928460   2.7928460   2.7928460
 AtZNuc=   8.0000000   8.0000000   6.0000000   6.0000000   1.0000000   1.0000000   1.0000000   1.0000000
 Leave Link  101 at Tue Apr 23 16:17:23 2019, MaxMem=   196608000 cpu:         2.2
 (Enter /cm/shared/c3ddb/gaussian/09.d01/g09/l103.exe)

 GradGradGradGradGradGradGradGradGradGradGradGradGradGradGradGradGradGrad
 Berny optimization.
 Initialization pass.
                           ----------------------------
                           !    Initial Parameters    !
                           ! (Angstroms and Degrees)  !
 --------------------------                            --------------------------
 ! Name  Definition              Value          Derivative Info.                !
 --------------------------------------------------------------------------------
 ! R1    R(1,2)                  1.4906         calculate D2E/DX2 analytically  !
 ! R2    R(1,3)                  1.3743         calculate D2E/DX2 analytically  !
 ! R3    R(2,8)                  0.9735         calculate D2E/DX2 analytically  !
 ! R4    R(3,4)                  1.3393         calculate D2E/DX2 analytically  !
 ! R5    R(3,5)                  1.0905         calculate D2E/DX2 analytically  !
 ! R6    R(4,6)                  1.0868         calculate D2E/DX2 analytically  !
 ! R7    R(4,7)                  1.0877         calculate D2E/DX2 analytically  !
 ! A1    A(2,1,3)              108.0995         calculate D2E/DX2 analytically  !
 ! A2    A(1,2,8)               99.7065         calculate D2E/DX2 analytically  !
 ! A3    A(1,3,4)              119.8909         calculate D2E/DX2 analytically  !
 ! A4    A(1,3,5)              114.6595         calculate D2E/DX2 analytically  !
 ! A5    A(4,3,5)              125.2777         calculate D2E/DX2 analytically  !
 ! A6    A(3,4,6)              119.6136         calculate D2E/DX2 analytically  !
 ! A7    A(3,4,7)              121.38           calculate D2E/DX2 analytically  !
 ! A8    A(6,4,7)              118.8893         calculate D2E/DX2 analytically  !
 ! D1    D(3,1,2,8)            104.5557         calculate D2E/DX2 analytically  !
 ! D2    D(2,1,3,4)           -148.2536         calculate D2E/DX2 analytically  !
 ! D3    D(2,1,3,5)             36.2638         calculate D2E/DX2 analytically  !
 ! D4    D(1,3,4,6)           -170.3095         calculate D2E/DX2 analytically  !
 ! D5    D(1,3,4,7)              5.7146         calculate D2E/DX2 analytically  !
 ! D6    D(5,3,4,6)              4.6603         calculate D2E/DX2 analytically  !
 ! D7    D(5,3,4,7)           -179.3156         calculate D2E/DX2 analytically  !
 --------------------------------------------------------------------------------
 Trust Radius=3.00D-01 FncErr=1.00D-07 GrdErr=1.00D-06
 Number of steps in this run=     32 maximum allowed number of steps=    100.
 GradGradGradGradGradGradGradGradGradGradGradGradGradGradGradGradGradGrad

 Leave Link  103 at Tue Apr 23 16:17:24 2019, MaxMem=   196608000 cpu:         0.9
 (Enter /cm/shared/c3ddb/gaussian/09.d01/g09/l202.exe)
                          Input orientation:                          
 ---------------------------------------------------------------------
 Center     Atomic      Atomic             Coordinates (Angstroms)
 Number     Number       Type             X           Y           Z
 ---------------------------------------------------------------------
      1          8           0       -0.475979   -0.428529    0.366527
      2          8           0       -1.725126    0.209122   -0.138370
      3          6           0        0.567039    0.437091    0.139713
      4          6           0        1.790958   -0.044302   -0.113263
      5          1           0        0.318024    1.491669    0.262528
      6          1           0        2.640553    0.633136   -0.135246
      7          1           0        1.966030   -1.110897   -0.235156
      8          1           0       -1.849697   -0.300536   -0.958416
 ---------------------------------------------------------------------
                    Distance matrix (angstroms):
                    1          2          3          4          5
     1  O    0.000000
     2  O    1.490600   0.000000
     3  C    1.374274   2.320198   0.000000
     4  C    2.348793   3.525294   1.339296   0.000000
     5  H    2.080484   2.445425   1.090516   2.161009   0.000000
     6  H    3.330417   4.386222   2.100832   1.086838   2.507876
     7  H    2.605965   3.921281   2.119899   1.087719   3.120411
     8  H    1.912840   0.973522   2.755103   3.746239   3.066221
                    6          7          8
     6  H    0.000000
     7  H    1.872596   0.000000
     8  H    4.659581   3.967311   0.000000
 Stoichiometry    C2H4O2
 Framework group  C1[X(C2H4O2)]
 Deg. of freedom    18
 Full point group                 C1      NOp   1
 Largest Abelian subgroup         C1      NOp   1
 Largest concise Abelian subgroup C1      NOp   1
                         Standard orientation:                         
 ---------------------------------------------------------------------
 Center     Atomic      Atomic             Coordinates (Angstroms)
 Number     Number       Type             X           Y           Z
 ---------------------------------------------------------------------
      1          8           0        0.461636   -0.487770   -0.314444
      2          8           0        1.714316    0.185682    0.131809
      3          6           0       -0.582675    0.385736   -0.127282
      4          6           0       -1.800388   -0.084286    0.172666
      5          1           0       -0.340970    1.431660   -0.319236
      6          1           0       -2.653160    0.589456    0.164411
      7          1           0       -1.968107   -1.141937    0.363396
      8          1           0        1.852999   -0.271171    0.980217
 ---------------------------------------------------------------------
 Rotational constants (GHZ):     37.0518042      4.5420478      4.2830630
 Leave Link  202 at Tue Apr 23 16:17:24 2019, MaxMem=   196608000 cpu:         0.1
 (Enter /cm/shared/c3ddb/gaussian/09.d01/g09/l301.exe)
 Standard basis: 6-311G(2d,d,p) (5D, 7F)
 Ernie: Thresh=  0.10000D-02 Tol=  0.10000D-05 Strict=F.
 There are   100 symmetry adapted cartesian basis functions of A   symmetry.
 There are    96 symmetry adapted basis functions of A   symmetry.
    96 basis functions,   160 primitive gaussians,   100 cartesian basis functions
    16 alpha electrons       16 beta electrons
       nuclear repulsion energy       115.9757437360 Hartrees.
 IExCor=  402 DFT=T Ex+Corr=B3LYP ExCW=0 ScaHFX=  0.200000
 ScaDFX=  0.800000  0.720000  1.000000  0.810000 ScalE2=  1.000000  1.000000
 IRadAn=      0 IRanWt=     -1 IRanGd=            0 ICorTp=0 IEmpDi=  4
 NAtoms=    8 NActive=    8 NUniq=    8 SFac= 1.00D+00 NAtFMM=   60 NAOKFM=F Big=F
 Integral buffers will be    131072 words long.
 Raffenetti 2 integral format.
 Two-electron integral symmetry is turned on.
 Leave Link  301 at Tue Apr 23 16:17:24 2019, MaxMem=   196608000 cpu:         1.0
 (Enter /cm/shared/c3ddb/gaussian/09.d01/g09/l302.exe)
 NPDir=0 NMtPBC=     1 NCelOv=     1 NCel=       1 NClECP=     1 NCelD=      1
         NCelK=      1 NCelE2=     1 NClLst=     1 CellRange=     0.0.
 One-electron integrals computed using PRISM.
 NBasis=    96 RedAO= T EigKep=  2.90D-03  NBF=    96
 NBsUse=    96 1.00D-06 EigRej= -1.00D+00 NBFU=    96
 Precomputing XC quadrature grid using
 IXCGrd= 4 IRadAn=           0 IRanWt=          -1 IRanGd=           0 AccXCQ= 0.00D+00.
 Generated NRdTot=       0 NPtTot=           0 NUsed=           0 NTot=          32
 NSgBfM=   100   100   100   100   100 MxSgAt=     8 MxSgA2=     8.
 Leave Link  302 at Tue Apr 23 16:17:25 2019, MaxMem=   196608000 cpu:         4.6
 (Enter /cm/shared/c3ddb/gaussian/09.d01/g09/l303.exe)
 DipDrv:  MaxL=1.
 Leave Link  303 at Tue Apr 23 16:17:25 2019, MaxMem=   196608000 cpu:         0.3
 (Enter /cm/shared/c3ddb/gaussian/09.d01/g09/l401.exe)
 ExpMin= 1.03D-01 ExpMax= 8.59D+03 ExpMxC= 1.30D+03 IAcc=1 IRadAn=         1 AccDes= 0.00D+00
 Harris functional with IExCor=  402 and IRadAn=       1 diagonalized for initial guess.
 HarFok:  IExCor=  402 AccDes= 0.00D+00 IRadAn=         1 IDoV= 1 UseB2=F ITyADJ=14
 ICtDFT=  3500011 ScaDFX=  1.000000  1.000000  1.000000  1.000000
 FoFCou: FMM=F IPFlag=           0 FMFlag=      100000 FMFlg1=           0
         NFxFlg=           0 DoJE=T BraDBF=F KetDBF=T FulRan=T
         wScrn=  0.000000 ICntrl=     500 IOpCl=  0 I1Cent=   200000004 NGrid=           0
         NMat0=    1 NMatS0=      1 NMatT0=    0 NMatD0=    1 NMtDS0=    0 NMtDT0=    0
 Petite list used in FoFCou.
 Harris En= -229.042049159137    
 JPrj=0 DoOrth=F DoCkMO=F.
 Leave Link  401 at Tue Apr 23 16:17:25 2019, MaxMem=   196608000 cpu:         2.3
 (Enter /cm/shared/c3ddb/gaussian/09.d01/g09/l502.exe)
 Closed shell SCF:
 Using DIIS extrapolation, IDIIS=  1040.
 Integral symmetry usage will be decided dynamically.
 Keep R1 ints in memory in canonical form, NReq=11801944.
 IVT=       37490 IEndB=       37490 NGot=   196608000 MDV=   185729015
 LenX=   185729015 LenY=   185718574
 Requested convergence on RMS density matrix=1.00D-08 within  64 cycles.
 Requested convergence on MAX density matrix=1.00D-06.
 Requested convergence on             energy=1.00D-06.
 No special actions if energy rises.
 FoFCou: FMM=F IPFlag=           0 FMFlag=           0 FMFlg1=           0
         NFxFlg=           0 DoJE=F BraDBF=F KetDBF=F FulRan=T
         wScrn=  0.000000 ICntrl=     600 IOpCl=  0 I1Cent=           0 NGrid=           0
         NMat0=    1 NMatS0=   4656 NMatT0=    0 NMatD0=    1 NMtDS0=    0 NMtDT0=    0
 Symmetry not used in FoFCou.
 Integral accuracy reduced to 1.0D-05 until final iterations.

 Cycle   1  Pass 0  IDiag  1:
 E= -228.894200870994    
 DIIS: error= 2.62D-02 at cycle   1 NSaved=   1.
 NSaved= 1 IEnMin= 1 EnMin= -228.894200870994     IErMin= 1 ErrMin= 2.62D-02
 ErrMax= 2.62D-02  0.00D+00 EMaxC= 1.00D-01 BMatC= 1.30D-01 BMatP= 1.30D-01
 IDIUse=3 WtCom= 7.38D-01 WtEn= 2.62D-01
 Coeff-Com:  0.100D+01
 Coeff-En:   0.100D+01
 Coeff:      0.100D+01
 Gap=     0.227 Goal=   None    Shift=    0.000
 GapD=    0.227 DampG=1.000 DampE=0.500 DampFc=0.5000 IDamp=-1.
 Damping current iteration by 5.00D-01
 RMSDP=5.09D-03 MaxDP=1.33D-01              OVMax= 2.83D-01

 Cycle   2  Pass 0  IDiag  1:
 E= -228.935989047824     Delta-E=       -0.041788176831 Rises=F Damp=T
 DIIS: error= 7.39D-03 at cycle   2 NSaved=   2.
 NSaved= 2 IEnMin= 2 EnMin= -228.935989047824     IErMin= 2 ErrMin= 7.39D-03
 ErrMax= 7.39D-03  0.00D+00 EMaxC= 1.00D-01 BMatC= 1.29D-02 BMatP= 1.30D-01
 IDIUse=3 WtCom= 9.26D-01 WtEn= 7.39D-02
 Coeff-Com:  0.105D+00 0.895D+00
 Coeff-En:   0.226D+00 0.774D+00
 Coeff:      0.114D+00 0.886D+00
 Gap=     0.224 Goal=   None    Shift=    0.000
 RMSDP=1.62D-03 MaxDP=3.14D-02 DE=-4.18D-02 OVMax= 2.14D-01

 Cycle   3  Pass 0  IDiag  1:
 E= -228.987844323259     Delta-E=       -0.051855275434 Rises=F Damp=F
 DIIS: error= 1.28D-02 at cycle   3 NSaved=   3.
 NSaved= 3 IEnMin= 3 EnMin= -228.987844323259     IErMin= 2 ErrMin= 7.39D-03
 ErrMax= 1.28D-02  0.00D+00 EMaxC= 1.00D-01 BMatC= 1.85D-02 BMatP= 1.29D-02
 IDIUse=2 WtCom= 0.00D+00 WtEn= 1.00D+00
 Coeff-En:   0.000D+00 0.000D+00 0.100D+01
 Coeff:      0.000D+00 0.000D+00 0.100D+01
 Gap=     0.227 Goal=   None    Shift=    0.000
 RMSDP=2.59D-03 MaxDP=4.34D-02 DE=-5.19D-02 OVMax= 1.62D-01

 Cycle   4  Pass 0  IDiag  1:
 E= -228.930014733686     Delta-E=        0.057829589573 Rises=F Damp=F
 DIIS: error= 2.68D-02 at cycle   4 NSaved=   4.
 NSaved= 4 IEnMin= 3 EnMin= -228.987844323259     IErMin= 2 ErrMin= 7.39D-03
 ErrMax= 2.68D-02  0.00D+00 EMaxC= 1.00D-01 BMatC= 9.26D-02 BMatP= 1.29D-02
 IDIUse=2 WtCom= 0.00D+00 WtEn= 1.00D+00
 Coeff-En:   0.000D+00 0.000D+00 0.771D+00 0.229D+00
 Coeff:      0.000D+00 0.000D+00 0.771D+00 0.229D+00
 Gap=     0.220 Goal=   None    Shift=    0.000
 RMSDP=1.28D-03 MaxDP=2.10D-02 DE= 5.78D-02 OVMax= 7.58D-02

 Cycle   5  Pass 0  IDiag  1:
 E= -228.998173234453     Delta-E=       -0.068158500767 Rises=F Damp=F
 DIIS: error= 7.23D-03 at cycle   5 NSaved=   5.
 NSaved= 5 IEnMin= 5 EnMin= -228.998173234453     IErMin= 5 ErrMin= 7.23D-03
 ErrMax= 7.23D-03  0.00D+00 EMaxC= 1.00D-01 BMatC= 6.13D-03 BMatP= 1.29D-02
 IDIUse=3 WtCom= 9.28D-01 WtEn= 7.23D-02
 Coeff-Com:  0.525D-02 0.336D-02 0.353D+00-0.739D-02 0.645D+00
 Coeff-En:   0.000D+00 0.000D+00 0.301D+00 0.000D+00 0.699D+00
 Coeff:      0.487D-02 0.312D-02 0.350D+00-0.686D-02 0.649D+00
 Gap=     0.223 Goal=   None    Shift=    0.000
 RMSDP=5.08D-04 MaxDP=8.80D-03 DE=-6.82D-02 OVMax= 3.39D-02

 Cycle   6  Pass 0  IDiag  1:
 E= -229.003262961725     Delta-E=       -0.005089727272 Rises=F Damp=F
 DIIS: error= 4.36D-04 at cycle   6 NSaved=   6.
 NSaved= 6 IEnMin= 6 EnMin= -229.003262961725     IErMin= 6 ErrMin= 4.36D-04
 ErrMax= 4.36D-04  0.00D+00 EMaxC= 1.00D-01 BMatC= 3.09D-05 BMatP= 6.13D-03
 IDIUse=3 WtCom= 9.96D-01 WtEn= 4.36D-03
 Coeff-Com: -0.184D-02 0.213D-02 0.106D+00-0.494D-01 0.379D+00 0.565D+00
 Coeff-En:   0.000D+00 0.000D+00 0.000D+00 0.000D+00 0.000D+00 0.100D+01
 Coeff:     -0.183D-02 0.212D-02 0.105D+00-0.491D-01 0.377D+00 0.567D+00
 Gap=     0.222 Goal=   None    Shift=    0.000
 RMSDP=3.72D-05 MaxDP=6.03D-04 DE=-5.09D-03 OVMax= 2.59D-03

 Cycle   7  Pass 0  IDiag  1:
 E= -229.003289457573     Delta-E=       -0.000026495847 Rises=F Damp=F
 DIIS: error= 2.88D-05 at cycle   7 NSaved=   7.
 NSaved= 7 IEnMin= 7 EnMin= -229.003289457573     IErMin= 7 ErrMin= 2.88D-05
 ErrMax= 2.88D-05  0.00D+00 EMaxC= 1.00D-01 BMatC= 1.41D-07 BMatP= 3.09D-05
 IDIUse=1 WtCom= 1.00D+00 WtEn= 0.00D+00
 Coeff-Com: -0.145D-03-0.230D-03 0.160D-01-0.991D-02 0.663D-01 0.117D+00
 Coeff-Com:  0.811D+00
 Coeff:     -0.145D-03-0.230D-03 0.160D-01-0.991D-02 0.663D-01 0.117D+00
 Coeff:      0.811D+00
 Gap=     0.222 Goal=   None    Shift=    0.000
 RMSDP=3.44D-06 MaxDP=8.73D-05 DE=-2.65D-05 OVMax= 1.46D-04

 Initial convergence to 1.0D-05 achieved.  Increase integral accuracy.
 Cycle   8  Pass 1  IDiag  1:
 E= -229.003272605762     Delta-E=        0.000016851810 Rises=F Damp=F
 DIIS: error= 1.80D-05 at cycle   1 NSaved=   1.
 NSaved= 1 IEnMin= 1 EnMin= -229.003272605762     IErMin= 1 ErrMin= 1.80D-05
 ErrMax= 1.80D-05  0.00D+00 EMaxC= 1.00D-01 BMatC= 5.48D-08 BMatP= 5.48D-08
 IDIUse=1 WtCom= 1.00D+00 WtEn= 0.00D+00
 Coeff-Com:  0.100D+01
 Coeff:      0.100D+01
 Gap=     0.222 Goal=   None    Shift=    0.000
 RMSDP=3.44D-06 MaxDP=8.73D-05 DE= 1.69D-05 OVMax= 1.21D-04

 Cycle   9  Pass 1  IDiag  1:
 E= -229.003272579664     Delta-E=        0.000000026098 Rises=F Damp=F
 DIIS: error= 2.86D-05 at cycle   2 NSaved=   2.
 NSaved= 2 IEnMin= 1 EnMin= -229.003272605762     IErMin= 1 ErrMin= 1.80D-05
 ErrMax= 2.86D-05  0.00D+00 EMaxC= 1.00D-01 BMatC= 1.08D-07 BMatP= 5.48D-08
 IDIUse=1 WtCom= 1.00D+00 WtEn= 0.00D+00
 Coeff-Com:  0.590D+00 0.410D+00
 Coeff:      0.590D+00 0.410D+00
 Gap=     0.222 Goal=   None    Shift=    0.000
 RMSDP=2.02D-06 MaxDP=4.63D-05 DE= 2.61D-08 OVMax= 6.63D-05

 Cycle  10  Pass 1  IDiag  1:
 E= -229.003272661491     Delta-E=       -0.000000081827 Rises=F Damp=F
 DIIS: error= 4.52D-06 at cycle   3 NSaved=   3.
 NSaved= 3 IEnMin= 3 EnMin= -229.003272661491     IErMin= 3 ErrMin= 4.52D-06
 ErrMax= 4.52D-06  0.00D+00 EMaxC= 1.00D-01 BMatC= 2.76D-09 BMatP= 5.48D-08
 IDIUse=1 WtCom= 1.00D+00 WtEn= 0.00D+00
 Coeff-Com:  0.176D+00 0.173D+00 0.651D+00
 Coeff:      0.176D+00 0.173D+00 0.651D+00
 Gap=     0.222 Goal=   None    Shift=    0.000
 RMSDP=5.41D-07 MaxDP=8.17D-06 DE=-8.18D-08 OVMax= 2.00D-05

 Cycle  11  Pass 1  IDiag  1:
 E= -229.003272661832     Delta-E=       -0.000000000341 Rises=F Damp=F
 DIIS: error= 4.01D-06 at cycle   4 NSaved=   4.
 NSaved= 4 IEnMin= 4 EnMin= -229.003272661832     IErMin= 4 ErrMin= 4.01D-06
 ErrMax= 4.01D-06  0.00D+00 EMaxC= 1.00D-01 BMatC= 2.14D-09 BMatP= 2.76D-09
 IDIUse=1 WtCom= 1.00D+00 WtEn= 0.00D+00
 Coeff-Com: -0.613D-02 0.323D-01 0.493D+00 0.481D+00
 Coeff:     -0.613D-02 0.323D-01 0.493D+00 0.481D+00
 Gap=     0.222 Goal=   None    Shift=    0.000
 RMSDP=2.84D-07 MaxDP=5.10D-06 DE=-3.41D-10 OVMax= 1.15D-05

 Cycle  12  Pass 1  IDiag  1:
 E= -229.003272663408     Delta-E=       -0.000000001575 Rises=F Damp=F
 DIIS: error= 4.80D-07 at cycle   5 NSaved=   5.
 NSaved= 5 IEnMin= 5 EnMin= -229.003272663408     IErMin= 5 ErrMin= 4.80D-07
 ErrMax= 4.80D-07  0.00D+00 EMaxC= 1.00D-01 BMatC= 4.93D-11 BMatP= 2.14D-09
 IDIUse=1 WtCom= 1.00D+00 WtEn= 0.00D+00
 Coeff-Com: -0.109D-01 0.913D-02 0.218D+00 0.249D+00 0.535D+00
 Coeff:     -0.109D-01 0.913D-02 0.218D+00 0.249D+00 0.535D+00
 Gap=     0.222 Goal=   None    Shift=    0.000
 RMSDP=5.08D-08 MaxDP=1.30D-06 DE=-1.58D-09 OVMax= 2.14D-06

 Cycle  13  Pass 1  IDiag  1:
 E= -229.003272663447     Delta-E=       -0.000000000039 Rises=F Damp=F
 DIIS: error= 1.08D-07 at cycle   6 NSaved=   6.
 NSaved= 6 IEnMin= 6 EnMin= -229.003272663447     IErMin= 6 ErrMin= 1.08D-07
 ErrMax= 1.08D-07  0.00D+00 EMaxC= 1.00D-01 BMatC= 1.58D-12 BMatP= 4.93D-11
 IDIUse=1 WtCom= 1.00D+00 WtEn= 0.00D+00
 Coeff-Com: -0.426D-02 0.256D-02 0.710D-01 0.873D-01 0.217D+00 0.627D+00
 Coeff:     -0.426D-02 0.256D-02 0.710D-01 0.873D-01 0.217D+00 0.627D+00
 Gap=     0.222 Goal=   None    Shift=    0.000
 RMSDP=1.44D-08 MaxDP=2.82D-07 DE=-3.90D-11 OVMax= 1.08D-06

 Cycle  14  Pass 1  IDiag  1:
 E= -229.003272663448     Delta-E=       -0.000000000001 Rises=F Damp=F
 DIIS: error= 7.70D-08 at cycle   7 NSaved=   7.
 NSaved= 7 IEnMin= 7 EnMin= -229.003272663448     IErMin= 7 ErrMin= 7.70D-08
 ErrMax= 7.70D-08  0.00D+00 EMaxC= 1.00D-01 BMatC= 6.16D-13 BMatP= 1.58D-12
 IDIUse=1 WtCom= 1.00D+00 WtEn= 0.00D+00
 Coeff-Com: -0.139D-02 0.296D-03 0.155D-01 0.225D-01 0.624D-01 0.401D+00
 Coeff-Com:  0.500D+00
 Coeff:     -0.139D-02 0.296D-03 0.155D-01 0.225D-01 0.624D-01 0.401D+00
 Coeff:      0.500D+00
 Gap=     0.222 Goal=   None    Shift=    0.000
 RMSDP=6.39D-09 MaxDP=1.07D-07 DE=-1.31D-12 OVMax= 4.37D-07

 SCF Done:  E(RB3LYP) =  -229.003272663     A.U. after   14 cycles
            NFock= 14  Conv=0.64D-08     -V/T= 2.0034
 KE= 2.282268941447D+02 PE=-7.701625798568D+02 EE= 1.969566693126D+02
 Leave Link  502 at Tue Apr 23 16:17:29 2019, MaxMem=   196608000 cpu:        25.7
 (Enter /cm/shared/c3ddb/gaussian/09.d01/g09/l508.exe)
 QCSCF skips out because SCF is already converged.
 Leave Link  508 at Tue Apr 23 16:17:30 2019, MaxMem=   196608000 cpu:         0.0
 (Enter /cm/shared/c3ddb/gaussian/09.d01/g09/l801.exe)
 DoSCS=F DFT=T ScalE2(SS,OS)=  1.000000  1.000000
 Range of M.O.s used for correlation:     1    96
 NBasis=    96 NAE=    16 NBE=    16 NFC=     0 NFV=     0
 NROrb=     96 NOA=    16 NOB=    16 NVA=    80 NVB=    80
 Leave Link  801 at Tue Apr 23 16:17:32 2019, MaxMem=   196608000 cpu:         0.2
 (Enter /cm/shared/c3ddb/gaussian/09.d01/g09/l1101.exe)
 Using compressed storage, NAtomX=     8.
 Will process      9 centers per pass.
 Leave Link 1101 at Tue Apr 23 16:17:34 2019, MaxMem=   196608000 cpu:         4.5
 (Enter /cm/shared/c3ddb/gaussian/09.d01/g09/l1102.exe)
 Symmetrizing basis deriv contribution to polar:
 IMax=3 JMax=2 DiffMx= 0.00D+00
 Leave Link 1102 at Tue Apr 23 16:17:37 2019, MaxMem=   196608000 cpu:         3.9
 (Enter /cm/shared/c3ddb/gaussian/09.d01/g09/l1110.exe)
 Forming Gx(P) for the SCF density, NAtomX=     8.
 Integral derivatives from FoFJK, PRISM(SPDF).
 Do as many integral derivatives as possible in FoFJK.
 G2DrvN: MDV=     196607832.
 G2DrvN: will do     9 centers at a time, making    1 passes.
 Calling FoFCou, ICntrl=  3107 FMM=F I1Cent=   0 AccDes= 0.00D+00.
 FoFJK:  IHMeth= 1 ICntrl=    3107 DoSepK=F KAlg= 0 I1Cent=   0 FoldK=F
 IRaf=         0 NMat=   1 IRICut=       1 DoRegI=T DoRafI=F ISym2E= 0.
 FoFCou: FMM=F IPFlag=           0 FMFlag=      100000 FMFlg1=           0
         NFxFlg=           0 DoJE=F BraDBF=F KetDBF=F FulRan=T
         wScrn=  0.000000 ICntrl=    3107 IOpCl=  0 I1Cent=           0 NGrid=           0
         NMat0=    1 NMatS0=      1 NMatT0=    0 NMatD0=    1 NMtDS0=    0 NMtDT0=    0
 Symmetry not used in FoFCou.
 End of G2Drv F.D. properties file   721 does not exist.
 End of G2Drv F.D. properties file   722 does not exist.
 End of G2Drv F.D. properties file   788 does not exist.
 Leave Link 1110 at Tue Apr 23 16:17:48 2019, MaxMem=   196608000 cpu:        64.8
 (Enter /cm/shared/c3ddb/gaussian/09.d01/g09/l1002.exe)
 Minotr:  Closed shell wavefunction.
          IDoAtm=11111111
          Direct CPHF calculation.
          Differentiating once with respect to nuclear coordinates.
          Requested convergence is 1.0D-08 RMS, and 1.0D-07 maximum.
          Secondary convergence is 1.0D-12 RMS, and 1.0D-12 maximum.
          NewPWx=T KeepS1=F KeepF1=F KeepIn=T MapXYZ=F SortEE=F KeepMc=T.
          MDV=     196607820 using IRadAn=       2.
 Generate precomputed XC quadrature information.
 Keep R1 ints in memory in canonical form, NReq=11765634.
 FoFCou: FMM=F IPFlag=           0 FMFlag=           0 FMFlg1=           0
         NFxFlg=           0 DoJE=F BraDBF=F KetDBF=F FulRan=T
         wScrn=  0.000000 ICntrl=     600 IOpCl=  0 I1Cent=           0 NGrid=           0
         NMat0=    1 NMatS0=   4656 NMatT0=    0 NMatD0=    1 NMtDS0=    0 NMtDT0=    0
 Symmetry not used in FoFCou.
          Solving linear equations simultaneously, MaxMat=       0.
          There are    27 degrees of freedom in the 1st order CPHF.  IDoFFX=6 NUNeed=     0.
     21 vectors produced by pass  0 Test12= 4.74D-15 3.70D-09 XBig12= 1.18D-01 1.53D-01.
 AX will form    21 AO Fock derivatives at one time.
     21 vectors produced by pass  1 Test12= 4.74D-15 3.70D-09 XBig12= 2.36D-02 6.97D-02.
     21 vectors produced by pass  2 Test12= 4.74D-15 3.70D-09 XBig12= 5.23D-04 4.33D-03.
     21 vectors produced by pass  3 Test12= 4.74D-15 3.70D-09 XBig12= 2.74D-06 3.14D-04.
     21 vectors produced by pass  4 Test12= 4.74D-15 3.70D-09 XBig12= 5.85D-09 1.51D-05.
     17 vectors produced by pass  5 Test12= 4.74D-15 3.70D-09 XBig12= 6.20D-12 4.48D-07.
      3 vectors produced by pass  6 Test12= 4.74D-15 3.70D-09 XBig12= 5.64D-15 9.58D-09.
 InvSVY:  IOpt=1 It=  1 EMax= 1.78D-15
 Solved reduced A of dimension   125 with    21 vectors.
 End of Minotr F.D. properties file   721 does not exist.
 End of Minotr F.D. properties file   722 does not exist.
 End of Minotr F.D. properties file   788 does not exist.
 Leave Link 1002 at Tue Apr 23 16:17:56 2019, MaxMem=   196608000 cpu:        47.4
 (Enter /cm/shared/c3ddb/gaussian/09.d01/g09/l601.exe)
 Copying SCF densities to generalized density rwf, IOpCl= 0 IROHF=0.

 **********************************************************************

            Population analysis using the SCF density.

 **********************************************************************

 Orbital symmetries:
       Occupied  (A) (A) (A) (A) (A) (A) (A) (A) (A) (A) (A) (A)
                 (A) (A) (A) (A)
       Virtual   (A) (A) (A) (A) (A) (A) (A) (A) (A) (A) (A) (A)
                 (A) (A) (A) (A) (A) (A) (A) (A) (A) (A) (A) (A)
                 (A) (A) (A) (A) (A) (A) (A) (A) (A) (A) (A) (A)
                 (A) (A) (A) (A) (A) (A) (A) (A) (A) (A) (A) (A)
                 (A) (A) (A) (A) (A) (A) (A) (A) (A) (A) (A) (A)
                 (A) (A) (A) (A) (A) (A) (A) (A) (A) (A) (A) (A)
                 (A) (A) (A) (A) (A) (A) (A) (A)
 The electronic state is 1-A.
 Alpha  occ. eigenvalues --  -19.20116 -19.18440 -10.23570 -10.17281  -1.12830
 Alpha  occ. eigenvalues --   -0.94436  -0.75266  -0.59026  -0.55323  -0.48093
 Alpha  occ. eigenvalues --   -0.45610  -0.44538  -0.39808  -0.34273  -0.31410
 Alpha  occ. eigenvalues --   -0.25350
 Alpha virt. eigenvalues --   -0.03170   0.01784   0.04161   0.07455   0.08247
 Alpha virt. eigenvalues --    0.12267   0.19881   0.27534   0.33387   0.36581
 Alpha virt. eigenvalues --    0.37792   0.41694   0.44806   0.49424   0.50753
 Alpha virt. eigenvalues --    0.60046   0.61890   0.66123   0.68260   0.73109
 Alpha virt. eigenvalues --    0.76345   0.80425   0.82899   0.86253   0.88996
 Alpha virt. eigenvalues --    0.97371   1.06066   1.07688   1.22826   1.25055
 Alpha virt. eigenvalues --    1.36212   1.37652   1.39639   1.41303   1.47188
 Alpha virt. eigenvalues --    1.50919   1.56399   1.62402   1.64017   1.75685
 Alpha virt. eigenvalues --    1.82276   1.91522   1.96470   1.99230   2.03915
 Alpha virt. eigenvalues --    2.10246   2.12887   2.27712   2.40622   2.48762
 Alpha virt. eigenvalues --    2.52780   2.53767   2.56511   2.57315   2.64304
 Alpha virt. eigenvalues --    2.70430   2.78829   2.83048   2.88291   3.01392
 Alpha virt. eigenvalues --    3.08235   3.15555   3.22932   3.33129   3.39476
 Alpha virt. eigenvalues --    3.56847   3.69181   3.74244   3.87726   4.06328
 Alpha virt. eigenvalues --    4.64780   4.75413   4.84072   5.17666   5.37949
 Alpha virt. eigenvalues --    5.57468  23.63377  24.20183  49.74224  49.78700
          Condensed to atoms (all electrons):
               1          2          3          4          5          6
     1  O    7.968811   0.080229   0.272352  -0.056146  -0.039261   0.003408
     2  O    0.080229   7.938570  -0.049532   0.002454   0.007403  -0.000282
     3  C    0.272352  -0.049532   4.734411   0.618596   0.393128  -0.031590
     4  C   -0.056146   0.002454   0.618596   4.938321  -0.042442   0.399644
     5  H   -0.039261   0.007403   0.393128  -0.042442   0.561902  -0.005401
     6  H    0.003408  -0.000282  -0.031590   0.399644  -0.005401   0.547096
     7  H    0.002143  -0.000200  -0.036044   0.398058   0.007761  -0.031833
     8  H   -0.023884   0.279108   0.003465  -0.000477   0.000024  -0.000005
               7          8
     1  O    0.002143  -0.023884
     2  O   -0.000200   0.279108
     3  C   -0.036044   0.003465
     4  C    0.398058  -0.000477
     5  H    0.007761   0.000024
     6  H   -0.031833  -0.000005
     7  H    0.538846   0.000151
     8  H    0.000151   0.470389
 Mulliken charges:
               1
     1  O   -0.207652
     2  O   -0.257751
     3  C    0.095214
     4  C   -0.258007
     5  H    0.116886
     6  H    0.118964
     7  H    0.121119
     8  H    0.271228
 Sum of Mulliken charges =   0.00000
 Mulliken charges with hydrogens summed into heavy atoms:
               1
     1  O   -0.207652
     2  O    0.013477
     3  C    0.212100
     4  C   -0.017925
 APT charges:
               1
     1  O   -0.095560
     2  O   -0.504487
     3  C   -0.437239
     4  C   -0.606699
     5  H    0.311389
     6  H    0.510035
     7  H    0.344316
     8  H    0.478246
 Sum of APT charges =   0.00000
 APT charges with hydrogens summed into heavy atoms:
               1
     1  O   -0.095560
     2  O   -0.026242
     3  C   -0.125850
     4  C    0.247652
 Electronic spatial extent (au):  <R**2>=            302.6979
 Charge=              0.0000 electrons
 Dipole moment (field-independent basis, Debye):
    X=             -0.5157    Y=              0.2303    Z=              1.6130  Tot=              1.7090
 Quadrupole moment (field-independent basis, Debye-Ang):
   XX=            -22.0283   YY=            -22.8459   ZZ=            -23.7301
   XY=             -1.2193   XZ=              3.0706   YZ=             -1.5816
 Traceless Quadrupole moment (field-independent basis, Debye-Ang):
   XX=              0.8398   YY=              0.0222   ZZ=             -0.8620
   XY=             -1.2193   XZ=              3.0706   YZ=             -1.5816
 Octapole moment (field-independent basis, Debye-Ang**2):
  XXX=              7.9883  YYY=             -0.3367  ZZZ=              1.7058  XYY=              1.3462
  XXY=             -2.5977  XXZ=              7.3557  XZZ=              9.2478  YZZ=             -1.1722
  YYZ=              0.0623  XYZ=             -0.7513
 Hexadecapole moment (field-independent basis, Debye-Ang**3):
 XXXX=           -277.7508 YYYY=            -47.5484 ZZZZ=            -31.3483 XXXY=             -8.1288
 XXXZ=             12.3879 YYYX=              0.4009 YYYZ=             -1.4881 ZZZX=              6.7267
 ZZZY=             -0.8142 XXYY=            -54.2399 XXZZ=            -52.0541 YYZZ=            -14.0232
 XXYZ=             -2.8169 YYXZ=              0.4750 ZZXY=             -0.6945
 N-N= 1.159757437360D+02 E-N=-7.701625746225D+02  KE= 2.282268941447D+02
  Exact polarizability:   0.000   0.000   0.000   0.000   0.000   0.000
 Approx polarizability:  77.787   9.008  38.222  -2.481  -2.472  28.622
 No NMR shielding tensors so no spin-rotation constants.
 Leave Link  601 at Tue Apr 23 16:17:58 2019, MaxMem=   196608000 cpu:         9.9
 (Enter /cm/shared/c3ddb/gaussian/09.d01/g09/l701.exe)
 Compute integral second derivatives.
 ... and contract with generalized density number  0.
 Leave Link  701 at Tue Apr 23 16:17:59 2019, MaxMem=   196608000 cpu:         6.9
 (Enter /cm/shared/c3ddb/gaussian/09.d01/g09/l702.exe)
 L702 exits ... SP integral derivatives will be done elsewhere.
 Leave Link  702 at Tue Apr 23 16:17:59 2019, MaxMem=   196608000 cpu:         0.2
 (Enter /cm/shared/c3ddb/gaussian/09.d01/g09/l703.exe)
 Compute integral second derivatives, UseDBF=F ICtDFT=           0.
 Integral derivatives from FoFJK, PRISM(SPDF).
 Calling FoFJK, ICntrl=    100147 FMM=F ISym2X=0 I1Cent= 0 IOpClX= 0 NMat=1 NMatS=1 NMatT=0.
 FoFJK:  IHMeth= 1 ICntrl=  100147 DoSepK=F KAlg= 0 I1Cent=   0 FoldK=F
 IRaf=         0 NMat=   1 IRICut=       1 DoRegI=T DoRafI=F ISym2E= 0.
 FoFCou: FMM=F IPFlag=           0 FMFlag=      100000 FMFlg1=         800
         NFxFlg=           0 DoJE=F BraDBF=F KetDBF=F FulRan=T
         wScrn=  0.000000 ICntrl=  100147 IOpCl=  0 I1Cent=           0 NGrid=           0
         NMat0=    1 NMatS0=      1 NMatT0=    0 NMatD0=    1 NMtDS0=    0 NMtDT0=    0
 Symmetry not used in FoFCou.
 Leave Link  703 at Tue Apr 23 16:18:09 2019, MaxMem=   196608000 cpu:        66.9
 (Enter /cm/shared/c3ddb/gaussian/09.d01/g09/l716.exe)
 Dipole        =-2.02904146D-01 9.06063621D-02 6.34607487D-01
 Polarizability= 0.00000000D+00 0.00000000D+00 0.00000000D+00
                 0.00000000D+00 0.00000000D+00 0.00000000D+00
 ***** Axes restored to original set *****
 -------------------------------------------------------------------
 Center     Atomic                   Forces (Hartrees/Bohr)
 Number     Number              X              Y              Z
 -------------------------------------------------------------------
      1        8          -0.008049030    0.007280885   -0.005864772
      2        8           0.010578298   -0.006715117    0.000834289
      3        6           0.006399852   -0.004310882   -0.001084881
      4        6          -0.007816206    0.004476252    0.002453131
      5        1           0.001000624   -0.003976081   -0.000539836
      6        1          -0.002673069   -0.002352579   -0.000644232
      7        1          -0.000784741    0.003465556    0.000666607
      8        1           0.001344273    0.002131965    0.004179694
 -------------------------------------------------------------------
 Cartesian Forces:  Max     0.010578298 RMS     0.004676353
 Force constants in Cartesian coordinates: 
                1             2             3             4             5 
      1  0.329253D+00
      2  0.632215D-01  0.277802D+00
      3  0.117101D-01 -0.728243D-01  0.923181D-01
      4 -0.106295D+00  0.472758D-01 -0.193829D-01  0.190096D+00
      5  0.439153D-01 -0.850999D-01  0.814677D-02 -0.338595D-01  0.225047D+00
      6 -0.558213D-01  0.234292D-01 -0.474137D-01  0.847770D-01  0.213368D+00
      7 -0.144641D+00 -0.583931D-01  0.267857D-01 -0.566503D-01 -0.109409D-01
      8 -0.972344D-01 -0.192383D+00  0.343578D-01  0.141380D-01  0.168815D-01
      9  0.326713D-01  0.418363D-01 -0.548875D-01 -0.859163D-02 -0.141277D-01
     10 -0.563988D-01 -0.850853D-02  0.122161D-01  0.295584D-02 -0.355364D-02
     11 -0.219491D-01  0.171493D-01  0.920129D-02 -0.824965D-02  0.460286D-03
     12  0.194777D-01  0.322802D-02  0.568172D-02 -0.569571D-02  0.276525D-02
     13 -0.448445D-02 -0.330808D-01 -0.890098D-03  0.355556D-02 -0.137239D-02
     14 -0.584971D-02 -0.260147D-01 -0.340210D-03  0.228732D-02  0.283296D-02
     15 -0.250548D-02  0.104969D-01  0.511559D-02  0.195152D-02 -0.206614D-02
     16 -0.351098D-02  0.271551D-02  0.766744D-03 -0.486272D-03  0.102366D-03
     17  0.293234D-02  0.693916D-03 -0.209138D-02  0.341086D-03  0.151413D-03
     18 -0.545357D-02 -0.500678D-02  0.111791D-01  0.425024D-02  0.721773D-03
     19  0.258002D-02  0.672205D-04 -0.133392D-02  0.756546D-04 -0.657189D-03
     20 -0.125993D-02  0.808677D-03  0.115757D-02  0.102602D-03  0.572666D-04
     21  0.100685D-02 -0.750276D-03 -0.732353D-02 -0.153792D-02  0.215333D-03
     22 -0.165023D-01 -0.132976D-01 -0.298718D-01 -0.332511D-01  0.636598D-02
     23  0.162240D-01  0.704432D-02  0.223925D-01 -0.220356D-01 -0.160330D+00
     24 -0.108564D-02 -0.409013D-03 -0.466977D-02 -0.557706D-01 -0.209024D+00
                6             7             8             9            10 
      6  0.390660D+00
      7 -0.660577D-02  0.722838D+00
      8 -0.188685D-02 -0.147511D+00  0.661498D+00
      9 -0.227970D-02 -0.106439D+00  0.392115D-01  0.164900D+00
     10 -0.308957D-04 -0.430476D+00  0.151160D+00  0.734859D-01  0.769160D+00
     11 -0.165718D-02  0.142944D+00 -0.181769D+00 -0.359160D-01 -0.431840D-01
     12  0.522770D-03  0.648138D-01 -0.376329D-01 -0.649743D-01 -0.100910D+00
     13  0.132310D-02 -0.701725D-01  0.701275D-01  0.106997D-01  0.715114D-03
     14  0.284223D-03  0.655220D-01 -0.301209D+00 -0.308329D-01 -0.707807D-03
     15 -0.135751D-03  0.128908D-01 -0.324608D-01 -0.455541D-01  0.315530D-02
     16  0.958658D-03 -0.164367D-01 -0.215804D-01 -0.549693D-03 -0.222932D+00
     17  0.188160D-04  0.104317D-01  0.867758D-02 -0.322375D-03 -0.139665D+00
     18  0.218776D-02  0.888428D-02  0.495783D-02 -0.411995D-02  0.434005D-02
     19 -0.311556D-03 -0.740402D-03  0.303421D-01  0.356013D-02 -0.624297D-01
     20  0.168044D-04 -0.376636D-03 -0.880530D-02 -0.101201D-02  0.437719D-01
     21 -0.121722D-02  0.236609D-02 -0.479704D-02  0.636596D-02  0.661254D-02
     22 -0.242892D-01 -0.372099D-02  0.558257D-03 -0.483656D-02 -0.594117D-03
     23 -0.233573D+00 -0.167642D-02 -0.289037D-02  0.116324D-02  0.687567D-03
     24 -0.342324D+00 -0.269582D-02 -0.174946D-02  0.550071D-03  0.113070D-02
               11            12            13            14            15 
     11  0.653723D+00
     12  0.651022D-01  0.118888D+00
     13  0.256252D-01  0.411505D-02  0.737527D-01
     14 -0.298324D-02 -0.745105D-03 -0.624477D-01  0.325764D+00
     15 -0.646237D-02  0.469936D-02 -0.165311D-01  0.310190D-01  0.317509D-01
     16 -0.134099D+00  0.928177D-02  0.485975D-03  0.444281D-03 -0.836247D-03
     17 -0.166389D+00  0.182167D-02 -0.350758D-03  0.483422D-03  0.778403D-03
     18  0.189774D-02 -0.281074D-01 -0.669627D-03  0.140458D-03 -0.539037D-02
     19  0.392910D-01  0.803559D-02 -0.383026D-02  0.509490D-03  0.228776D-02
     20 -0.320990D+00 -0.344118D-01  0.110602D-02  0.912315D-03 -0.940271D-03
     21 -0.322961D-01 -0.361830D-01  0.182211D-02 -0.637185D-04  0.963209D-02
     22 -0.377926D-03  0.881427D-03 -0.220914D-04  0.242069D-03 -0.412550D-03
     23  0.799070D-03 -0.127276D-03  0.392925D-03  0.214315D-03 -0.364699D-03
     24  0.130449D-03 -0.526840D-03  0.130908D-03  0.538240D-03 -0.117663D-03
               16            17            18            19            20 
     16  0.235786D+00
     17  0.147227D+00  0.167053D+00
     18 -0.958051D-02 -0.114497D-02  0.232581D-01
     19  0.689489D-02 -0.209610D-01 -0.249617D-02  0.576416D-01
     20  0.517268D-02 -0.105784D-01 -0.127321D-02 -0.486183D-01  0.338625D+00
     21 -0.261223D-03  0.958253D-03  0.116106D-02 -0.965276D-02  0.365181D-01
     22  0.199361D-03  0.448536D-04  0.725310D-03 -0.191734D-03  0.101721D-03
     23  0.180633D-04 -0.919460D-04 -0.292843D-03  0.267591D-04 -0.286776D-04
     24  0.220501D-03 -0.184168D-04 -0.168279D-03 -0.890729D-04 -0.552104D-04
               21            22            23            24 
     21  0.272864D-01
     22 -0.355682D-03  0.540829D-01
     23  0.215396D-03  0.636265D-02  0.155284D+00
     24  0.278307D-03  0.581590D-01  0.210587D+00  0.346978D+00
 FormGI is forming the generalized inverse of G from B-inverse, IUseBI=4.
 Force constants in internal coordinates: 
                1             2             3             4             5 
      1  0.213845D+00
      2  0.308562D-01  0.348561D+00
      3 -0.435104D-02  0.265861D-02  0.488763D+00
      4 -0.670619D-02  0.437778D-01 -0.117128D-02  0.581903D+00
      5 -0.423619D-03  0.110179D-01 -0.473666D-03  0.438545D-02  0.344075D+00
      6 -0.174829D-03 -0.108715D-02 -0.141711D-03  0.357199D-02  0.578336D-03
      7 -0.938170D-04 -0.684630D-03  0.291579D-05  0.491675D-02 -0.320488D-03
      8  0.490248D-01  0.422835D-01  0.979174D-03  0.376911D-02 -0.879041D-02
      9  0.549419D-01  0.236205D-02 -0.830935D-02  0.105928D-02 -0.384314D-03
     10  0.105187D-01  0.226741D-01 -0.578779D-03  0.158941D-01 -0.946559D-02
     11 -0.849806D-02  0.152352D-01 -0.271918D-03 -0.212315D-01  0.454988D-02
     12 -0.174502D-02 -0.381575D-01  0.824235D-03  0.536825D-02  0.498477D-02
     13  0.185259D-02  0.416488D-02 -0.400836D-03  0.118079D-01 -0.148462D-02
     14 -0.125273D-02 -0.386048D-02  0.351960D-03  0.795767D-02  0.236217D-02
     15 -0.465140D-03 -0.575388D-03  0.552290D-04 -0.194484D-01 -0.894840D-03
     16 -0.228810D-02  0.283451D-02  0.276781D-02  0.121537D-02  0.132333D-03
     17 -0.485521D-02 -0.181790D-02  0.368168D-03  0.851695D-03 -0.995711D-03
     18 -0.833986D-02  0.329813D-02  0.674422D-03  0.273295D-03 -0.217396D-02
     19 -0.587894D-02  0.669655D-02  0.360275D-03 -0.302173D-02 -0.948650D-03
     20 -0.360858D-02  0.207979D-02  0.469743D-03  0.159372D-02 -0.128040D-02
     21 -0.223155D-02  0.398863D-02 -0.432254D-04 -0.356957D-02  0.237450D-03
     22  0.388121D-04 -0.628138D-03  0.662425D-04  0.104588D-02 -0.943006D-04
                6             7             8             9            10 
      6  0.352796D+00
      7  0.120953D-02  0.351154D+00
      8  0.618862D-03  0.467645D-03  0.300123D+00
      9 -0.354855D-03  0.147962D-03  0.162341D-01  0.205049D+00
     10  0.480760D-02 -0.455112D-02  0.175533D-01  0.250864D-02  0.128688D+00
     11 -0.202695D-02  0.163656D-03 -0.136949D-01 -0.100464D-02 -0.727166D-01
     12 -0.279016D-02  0.438508D-02 -0.352383D-02 -0.137204D-02 -0.558163D-01
     13  0.677829D-02 -0.119469D-01  0.296844D-02  0.110372D-03  0.139195D-01
     14 -0.115035D-01  0.787946D-02 -0.383241D-03  0.173981D-03 -0.132789D-01
     15  0.478696D-02  0.413936D-02 -0.231587D-02 -0.248674D-03 -0.611324D-03
     16  0.192915D-04  0.908636D-04  0.660525D-02  0.835673D-02  0.913485D-04
     17 -0.112009D-02  0.558904D-04  0.716251D-02  0.245407D-02  0.105967D-02
     18 -0.844773D-03 -0.135781D-03  0.301831D-02  0.799054D-03  0.218609D-02
     19 -0.656456D-03 -0.643016D-03 -0.758958D-02 -0.214107D-02  0.255981D-02
     20  0.594155D-03  0.728111D-03 -0.310747D-02 -0.154536D-02  0.305165D-02
     21 -0.871343D-03 -0.695924D-03 -0.330663D-02 -0.252431D-03  0.184216D-02
     22  0.379268D-03  0.675203D-03  0.117548D-02  0.343277D-03  0.233400D-02
               11            12            13            14            15 
     11  0.103462D+00
     12 -0.308226D-01  0.866867D-01
     13 -0.347370D-02 -0.104219D-01  0.732822D-01
     14  0.109049D-02  0.121858D-01 -0.387660D-01  0.716015D-01
     15  0.237845D-02 -0.176750D-02 -0.343435D-01 -0.327050D-01  0.668636D-01
     16 -0.524168D-03  0.486249D-03  0.932775D-04 -0.491806D-04 -0.356612D-04
     17 -0.346042D-02  0.334528D-02 -0.147408D-02  0.164739D-02  0.140721D-04
     18 -0.136256D-02 -0.153275D-02 -0.124334D-02  0.105874D-02  0.976568D-04
     19 -0.285439D-02 -0.101282D-02 -0.168036D-02  0.367794D-03  0.154688D-03
     20 -0.284429D-02 -0.115918D-02 -0.305690D-04  0.120662D-02 -0.334161D-03
     21  0.908548D-03 -0.222180D-02 -0.142882D-02  0.308844D-03  0.267740D-03
     22  0.918641D-03 -0.236816D-02  0.220963D-03  0.114767D-02 -0.221109D-03
               16            17            18            19            20 
     16  0.604254D-02
     17  0.192462D-02  0.114247D-01
     18  0.120221D-02 -0.110661D-02  0.827111D-02
     19 -0.835687D-03 -0.105595D-01  0.663756D-02  0.286644D-01
     20 -0.693813D-03 -0.738072D-02  0.516409D-02  0.901567D-02  0.232915D-01
     21 -0.823343D-04  0.305303D-02 -0.376948D-02  0.945341D-02 -0.500284D-02
     22  0.595396D-04  0.623181D-02 -0.524295D-02 -0.101953D-01  0.927294D-02
               21            22 
     21  0.172292D-01
     22  0.277296D-02  0.222412D-01
 Leave Link  716 at Tue Apr 23 16:18:10 2019, MaxMem=   196608000 cpu:         3.3
 (Enter /cm/shared/c3ddb/gaussian/09.d01/g09/l103.exe)

 GradGradGradGradGradGradGradGradGradGradGradGradGradGradGradGradGradGrad
 Berny optimization.
 Red2BG is reusing G-inverse.
 Internal  Forces:  Max     0.013646730 RMS     0.004535414
 Search for a local minimum.
 Step number   1 out of a maximum of   32
 All quantities printed in internal units (Hartrees-Bohrs-Radians)
 RMS Force = .45354D-02 SwitMx=.10000D-02 MixMth= 1
 Mixed Optimization -- RFO/linear search
 Second derivative matrix not updated -- analytic derivatives used.
 ITU=  0
     Eigenvalues ---    0.00451   0.00801   0.02435   0.03237   0.04448
     Eigenvalues ---    0.09499   0.10018   0.12178   0.15122   0.19309
     Eigenvalues ---    0.23346   0.29296   0.34810   0.35215   0.35397
     Eigenvalues ---    0.39547   0.48918   0.59375
 RFO step:  Lambda=-1.66920564D-03 EMin= 4.50907380D-03
 Linear search not attempted -- first point.
 Iteration  1 RMS(Cart)=  0.05802379 RMS(Int)=  0.00245095
 Iteration  2 RMS(Cart)=  0.00242793 RMS(Int)=  0.00002632
 Iteration  3 RMS(Cart)=  0.00000438 RMS(Int)=  0.00002617
 Iteration  4 RMS(Cart)=  0.00000000 RMS(Int)=  0.00002617
 ITry= 1 IFail=0 DXMaxC= 1.37D-01 DCOld= 1.00D+10 DXMaxT= 3.00D-01 DXLimC= 3.00D+00 Rises=F
 Variable       Old X    -DE/DX   Delta X   Delta X   Delta X     New X
                                 (Linear)    (Quad)   (Total)
    R1        2.81682  -0.01365   0.00000  -0.07786  -0.07786   2.73897
    R2        2.59700  -0.00478   0.00000  -0.00273  -0.00273   2.59427
    R3        1.83969  -0.00481   0.00000  -0.00992  -0.00992   1.82977
    R4        2.53090  -0.01278   0.00000  -0.02343  -0.02343   2.50747
    R5        2.06078  -0.00413   0.00000  -0.01218  -0.01218   2.04859
    R6        2.05383  -0.00354   0.00000  -0.01066  -0.01066   2.04317
    R7        2.05549  -0.00360   0.00000  -0.00964  -0.00964   2.04585
    A1        1.88669  -0.00290   0.00000   0.00359   0.00359   1.89028
    A2        1.74021  -0.00153   0.00000   0.01419   0.01419   1.75439
    A3        2.09249   0.00104   0.00000   0.01346   0.01342   2.10591
    A4        2.00119  -0.00041   0.00000  -0.01072  -0.01076   1.99043
    A5        2.18651  -0.00060   0.00000  -0.00158  -0.00162   2.18489
    A6        2.08765   0.00061   0.00000   0.00356   0.00351   2.09116
    A7        2.11848  -0.00055   0.00000   0.00102   0.00096   2.11945
    A8        2.07501  -0.00004   0.00000  -0.00342  -0.00348   2.07153
    D1        1.82484  -0.00014   0.00000  -0.01779  -0.01779   1.80705
    D2       -2.58751  -0.00020   0.00000  -0.09608  -0.09610  -2.68362
    D3        0.63292  -0.00056   0.00000  -0.11124  -0.11122   0.52170
    D4       -2.97246  -0.00080   0.00000  -0.04124  -0.04125  -3.01371
    D5        0.09974  -0.00041   0.00000  -0.02174  -0.02175   0.07799
    D6        0.08134  -0.00038   0.00000  -0.02468  -0.02467   0.05667
    D7       -3.12965   0.00001   0.00000  -0.00518  -0.00517  -3.13482
         Item               Value     Threshold  Converged?
 Maximum Force            0.013647     0.000015     NO 
 RMS     Force            0.004535     0.000010     NO 
 Maximum Displacement     0.137031     0.000060     NO 
 RMS     Displacement     0.057385     0.000040     NO 
 Predicted change in Energy=-8.615962D-04
 Lowest energy point so far.  Saving SCF results.
 GradGradGradGradGradGradGradGradGradGradGradGradGradGradGradGradGradGrad

 Leave Link  103 at Tue Apr 23 16:18:12 2019, MaxMem=   196608000 cpu:        15.4
 (Enter /cm/shared/c3ddb/gaussian/09.d01/g09/l202.exe)
                          Input orientation:                          
 ---------------------------------------------------------------------
 Center     Atomic      Atomic             Coordinates (Angstroms)
 Number     Number       Type             X           Y           Z
 ---------------------------------------------------------------------
      1          8           0       -0.477760   -0.458126    0.315898
      2          8           0       -1.703265    0.200734   -0.090060
      3          6           0        0.565640    0.411614    0.117071
      4          6           0        1.793601   -0.042714   -0.098230
      5          1           0        0.294725    1.456549    0.216683
      6          1           0        2.623913    0.648827   -0.134874
      7          1           0        1.994928   -1.102109   -0.194201
      8          1           0       -1.859980   -0.228023   -0.943968
 ---------------------------------------------------------------------
                    Distance matrix (angstroms):
                    1          2          3          4          5
     1  O    0.000000
     2  O    1.449400   0.000000
     3  C    1.372831   2.288079   0.000000
     4  C    2.345880   3.505339   1.326897   0.000000
     5  H    2.067017   2.379733   1.084069   2.143265   0.000000
     6  H    3.323991   4.350547   2.087159   1.081198   2.490205
     7  H    2.605591   3.922356   2.105021   1.082617   3.099394
     8  H    1.884341   0.968271   2.723705   3.754765   2.971135
                    6          7          8
     6  H    0.000000
     7  H    1.861429   0.000000
     8  H    4.639913   4.023244   0.000000
 Stoichiometry    C2H4O2
 Framework group  C1[X(C2H4O2)]
 Deg. of freedom    18
 Full point group                 C1      NOp   1
 RotChk:  IX=0 Diff= 1.80D-02
 Largest Abelian subgroup         C1      NOp   1
 Largest concise Abelian subgroup C1      NOp   1
                         Standard orientation:                         
 ---------------------------------------------------------------------
 Center     Atomic      Atomic             Coordinates (Angstroms)
 Number     Number       Type             X           Y           Z
 ---------------------------------------------------------------------
      1          8           0        0.470931   -0.504598   -0.256096
      2          8           0        1.695594    0.188757    0.090634
      3          6           0       -0.576002    0.371889   -0.113378
      4          6           0       -1.799630   -0.071859    0.144456
      5          1           0       -0.311953    1.408094   -0.291596
      6          1           0       -2.633666    0.616119    0.136824
      7          1           0       -1.994037   -1.122387    0.319552
      8          1           0        1.861245   -0.175275    0.972445
 ---------------------------------------------------------------------
 Rotational constants (GHZ):     39.6245950      4.6177798      4.3213492
 Leave Link  202 at Tue Apr 23 16:18:12 2019, MaxMem=   196608000 cpu:         0.3
 (Enter /cm/shared/c3ddb/gaussian/09.d01/g09/l301.exe)
 Standard basis: 6-311G(2d,d,p) (5D, 7F)
 Ernie: Thresh=  0.10000D-02 Tol=  0.10000D-05 Strict=F.
 There are   100 symmetry adapted cartesian basis functions of A   symmetry.
 There are    96 symmetry adapted basis functions of A   symmetry.
    96 basis functions,   160 primitive gaussians,   100 cartesian basis functions
    16 alpha electrons       16 beta electrons
       nuclear repulsion energy       117.2092593739 Hartrees.
 IExCor=  402 DFT=T Ex+Corr=B3LYP ExCW=0 ScaHFX=  0.200000
 ScaDFX=  0.800000  0.720000  1.000000  0.810000 ScalE2=  1.000000  1.000000
 IRadAn=      0 IRanWt=     -1 IRanGd=            0 ICorTp=0 IEmpDi=  4
 NAtoms=    8 NActive=    8 NUniq=    8 SFac= 1.00D+00 NAtFMM=   60 NAOKFM=F Big=F
 Integral buffers will be    131072 words long.
 Raffenetti 2 integral format.
 Two-electron integral symmetry is turned on.
 Leave Link  301 at Tue Apr 23 16:18:12 2019, MaxMem=   196608000 cpu:         1.3
 (Enter /cm/shared/c3ddb/gaussian/09.d01/g09/l302.exe)
 NPDir=0 NMtPBC=     1 NCelOv=     1 NCel=       1 NClECP=     1 NCelD=      1
         NCelK=      1 NCelE2=     1 NClLst=     1 CellRange=     0.0.
 One-electron integrals computed using PRISM.
 NBasis=    96 RedAO= T EigKep=  2.67D-03  NBF=    96
 NBsUse=    96 1.00D-06 EigRej= -1.00D+00 NBFU=    96
 Precomputing XC quadrature grid using
 IXCGrd= 4 IRadAn=           0 IRanWt=          -1 IRanGd=           0 AccXCQ= 0.00D+00.
 Generated NRdTot=       0 NPtTot=           0 NUsed=           0 NTot=          32
 NSgBfM=   100   100   100   100   100 MxSgAt=     8 MxSgA2=     8.
 Leave Link  302 at Tue Apr 23 16:18:13 2019, MaxMem=   196608000 cpu:         3.8
 (Enter /cm/shared/c3ddb/gaussian/09.d01/g09/l303.exe)
 DipDrv:  MaxL=1.
 Leave Link  303 at Tue Apr 23 16:18:13 2019, MaxMem=   196608000 cpu:         0.9
 (Enter /cm/shared/c3ddb/gaussian/09.d01/g09/l401.exe)
 Initial guess from the checkpoint file:  "check.chk"
 B after Tr=     0.000000    0.000000    0.000000
         Rot=    0.999813    0.019341    0.000772    0.000446 Ang=   2.22 deg.
 Guess basis will be translated and rotated to current coordinates.
 JPrj=2 DoOrth=T DoCkMO=T.
 Generating alternative initial guess.
 ExpMin= 1.03D-01 ExpMax= 8.59D+03 ExpMxC= 1.30D+03 IAcc=1 IRadAn=         1 AccDes= 0.00D+00
 Harris functional with IExCor=  402 and IRadAn=       1 diagonalized for initial guess.
 HarFok:  IExCor=  402 AccDes= 0.00D+00 IRadAn=         1 IDoV= 1 UseB2=F ITyADJ=14
 ICtDFT=  3500011 ScaDFX=  1.000000  1.000000  1.000000  1.000000
 FoFCou: FMM=F IPFlag=           0 FMFlag=      100000 FMFlg1=           0
         NFxFlg=           0 DoJE=T BraDBF=F KetDBF=T FulRan=T
         wScrn=  0.000000 ICntrl=     500 IOpCl=  0 I1Cent=   200000004 NGrid=           0
         NMat0=    1 NMatS0=      1 NMatT0=    0 NMatD0=    1 NMtDS0=    0 NMtDT0=    0
 Petite list used in FoFCou.
 Harris En= -229.046193696885    
 Leave Link  401 at Tue Apr 23 16:18:14 2019, MaxMem=   196608000 cpu:         8.0
 (Enter /cm/shared/c3ddb/gaussian/09.d01/g09/l502.exe)
 Closed shell SCF:
 Using DIIS extrapolation, IDIIS=  1040.
 Integral symmetry usage will be decided dynamically.
 Keep R1 ints in memory in canonical form, NReq=11801944.
 IVT=       37490 IEndB=       37490 NGot=   196608000 MDV=   185729015
 LenX=   185729015 LenY=   185718574
 Requested convergence on RMS density matrix=1.00D-08 within  64 cycles.
 Requested convergence on MAX density matrix=1.00D-06.
 Requested convergence on             energy=1.00D-06.
 No special actions if energy rises.
 FoFCou: FMM=F IPFlag=           0 FMFlag=           0 FMFlg1=           0
         NFxFlg=           0 DoJE=F BraDBF=F KetDBF=F FulRan=T
         wScrn=  0.000000 ICntrl=     600 IOpCl=  0 I1Cent=           0 NGrid=           0
         NMat0=    1 NMatS0=   4656 NMatT0=    0 NMatD0=    1 NMtDS0=    0 NMtDT0=    0
 Symmetry not used in FoFCou.
 Integral accuracy reduced to 1.0D-05 until final iterations.

 Cycle   1  Pass 0  IDiag  1:
 E= -228.999998195405    
 DIIS: error= 3.48D-03 at cycle   1 NSaved=   1.
 NSaved= 1 IEnMin= 1 EnMin= -228.999998195405     IErMin= 1 ErrMin= 3.48D-03
 ErrMax= 3.48D-03  0.00D+00 EMaxC= 1.00D-01 BMatC= 2.38D-03 BMatP= 2.38D-03
 IDIUse=3 WtCom= 9.65D-01 WtEn= 3.48D-02
 Coeff-Com:  0.100D+01
 Coeff-En:   0.100D+01
 Coeff:      0.100D+01
 Gap=     0.758 Goal=   None    Shift=    0.000
 GapD=    0.758 DampG=2.000 DampE=1.000 DampFc=2.0000 IDamp=-1.
 RMSDP=7.11D-04 MaxDP=7.05D-03              OVMax= 3.17D-02

 Cycle   2  Pass 0  IDiag  1:
 E= -229.003972731186     Delta-E=       -0.003974535781 Rises=F Damp=F
 DIIS: error= 6.05D-04 at cycle   2 NSaved=   2.
 NSaved= 2 IEnMin= 2 EnMin= -229.003972731186     IErMin= 2 ErrMin= 6.05D-04
 ErrMax= 6.05D-04  0.00D+00 EMaxC= 1.00D-01 BMatC= 6.81D-05 BMatP= 2.38D-03
 IDIUse=3 WtCom= 9.94D-01 WtEn= 6.05D-03
 Coeff-Com: -0.336D-01 0.103D+01
 Coeff-En:   0.000D+00 0.100D+01
 Coeff:     -0.334D-01 0.103D+01
 Gap=     0.236 Goal=   None    Shift=    0.000
 RMSDP=1.38D-04 MaxDP=2.64D-03 DE=-3.97D-03 OVMax= 5.46D-03

 Cycle   3  Pass 0  IDiag  1:
 E= -229.003997648065     Delta-E=       -0.000024916879 Rises=F Damp=F
 DIIS: error= 7.24D-04 at cycle   3 NSaved=   3.
 NSaved= 3 IEnMin= 3 EnMin= -229.003997648065     IErMin= 2 ErrMin= 6.05D-04
 ErrMax= 7.24D-04  0.00D+00 EMaxC= 1.00D-01 BMatC= 8.47D-05 BMatP= 6.81D-05
 IDIUse=3 WtCom= 2.71D-01 WtEn= 7.29D-01
 Coeff-Com: -0.369D-01 0.567D+00 0.470D+00
 Coeff-En:   0.000D+00 0.389D+00 0.611D+00
 Coeff:     -0.100D-01 0.437D+00 0.573D+00
 Gap=     0.238 Goal=   None    Shift=    0.000
 RMSDP=9.31D-05 MaxDP=1.94D-03 DE=-2.49D-05 OVMax= 4.13D-03

 Cycle   4  Pass 0  IDiag  1:
 E= -229.004049178143     Delta-E=       -0.000051530078 Rises=F Damp=F
 DIIS: error= 4.76D-04 at cycle   4 NSaved=   4.
 NSaved= 4 IEnMin= 4 EnMin= -229.004049178143     IErMin= 4 ErrMin= 4.76D-04
 ErrMax= 4.76D-04  0.00D+00 EMaxC= 1.00D-01 BMatC= 3.29D-05 BMatP= 6.81D-05
 IDIUse=3 WtCom= 9.95D-01 WtEn= 4.76D-03
 Coeff-Com: -0.173D-01 0.188D+00 0.385D+00 0.445D+00
 Coeff-En:   0.000D+00 0.000D+00 0.270D+00 0.730D+00
 Coeff:     -0.173D-01 0.187D+00 0.385D+00 0.446D+00
 Gap=     0.237 Goal=   None    Shift=    0.000
 RMSDP=3.45D-05 MaxDP=6.33D-04 DE=-5.15D-05 OVMax= 1.43D-03

 Cycle   5  Pass 0  IDiag  1:
 E= -229.004073663195     Delta-E=       -0.000024485052 Rises=F Damp=F
 DIIS: error= 9.32D-05 at cycle   5 NSaved=   5.
 NSaved= 5 IEnMin= 5 EnMin= -229.004073663195     IErMin= 5 ErrMin= 9.32D-05
 ErrMax= 9.32D-05  0.00D+00 EMaxC= 1.00D-01 BMatC= 9.13D-07 BMatP= 3.29D-05
 IDIUse=1 WtCom= 1.00D+00 WtEn= 0.00D+00
 Coeff-Com: -0.323D-02 0.123D-01 0.136D+00 0.232D+00 0.623D+00
 Coeff:     -0.323D-02 0.123D-01 0.136D+00 0.232D+00 0.623D+00
 Gap=     0.237 Goal=   None    Shift=    0.000
 RMSDP=7.45D-06 MaxDP=1.65D-04 DE=-2.45D-05 OVMax= 3.70D-04

 Initial convergence to 1.0D-05 achieved.  Increase integral accuracy.
 Cycle   6  Pass 1  IDiag  1:
 E= -229.004068742493     Delta-E=        0.000004920702 Rises=F Damp=F
 DIIS: error= 3.35D-05 at cycle   1 NSaved=   1.
 NSaved= 1 IEnMin= 1 EnMin= -229.004068742493     IErMin= 1 ErrMin= 3.35D-05
 ErrMax= 3.35D-05  0.00D+00 EMaxC= 1.00D-01 BMatC= 1.79D-07 BMatP= 1.79D-07
 IDIUse=1 WtCom= 1.00D+00 WtEn= 0.00D+00
 Coeff-Com:  0.100D+01
 Coeff:      0.100D+01
 Gap=     0.237 Goal=   None    Shift=    0.000
 RMSDP=7.45D-06 MaxDP=1.65D-04 DE= 4.92D-06 OVMax= 5.71D-04

 Cycle   7  Pass 1  IDiag  1:
 E= -229.004068307179     Delta-E=        0.000000435313 Rises=F Damp=F
 DIIS: error= 7.80D-05 at cycle   2 NSaved=   2.
 NSaved= 2 IEnMin= 1 EnMin= -229.004068742493     IErMin= 1 ErrMin= 3.35D-05
 ErrMax= 7.80D-05  0.00D+00 EMaxC= 1.00D-01 BMatC= 7.14D-07 BMatP= 1.79D-07
 IDIUse=1 WtCom= 1.00D+00 WtEn= 0.00D+00
 Coeff-Com:  0.671D+00 0.329D+00
 Coeff:      0.671D+00 0.329D+00
 Gap=     0.237 Goal=   None    Shift=    0.000
 RMSDP=5.34D-06 MaxDP=8.19D-05 DE= 4.35D-07 OVMax= 3.69D-04

 Cycle   8  Pass 1  IDiag  1:
 E= -229.004068904519     Delta-E=       -0.000000597340 Rises=F Damp=F
 DIIS: error= 5.46D-06 at cycle   3 NSaved=   3.
 NSaved= 3 IEnMin= 3 EnMin= -229.004068904519     IErMin= 3 ErrMin= 5.46D-06
 ErrMax= 5.46D-06  0.00D+00 EMaxC= 1.00D-01 BMatC= 4.27D-09 BMatP= 1.79D-07
 IDIUse=1 WtCom= 1.00D+00 WtEn= 0.00D+00
 Coeff-Com:  0.225D+00 0.129D+00 0.646D+00
 Coeff:      0.225D+00 0.129D+00 0.646D+00
 Gap=     0.237 Goal=   None    Shift=    0.000
 RMSDP=6.43D-07 MaxDP=1.31D-05 DE=-5.97D-07 OVMax= 2.71D-05

 Cycle   9  Pass 1  IDiag  1:
 E= -229.004068905957     Delta-E=       -0.000000001438 Rises=F Damp=F
 DIIS: error= 3.50D-06 at cycle   4 NSaved=   4.
 NSaved= 4 IEnMin= 4 EnMin= -229.004068905957     IErMin= 4 ErrMin= 3.50D-06
 ErrMax= 3.50D-06  0.00D+00 EMaxC= 1.00D-01 BMatC= 2.14D-09 BMatP= 4.27D-09
 IDIUse=1 WtCom= 1.00D+00 WtEn= 0.00D+00
 Coeff-Com:  0.167D-01 0.201D-01 0.428D+00 0.536D+00
 Coeff:      0.167D-01 0.201D-01 0.428D+00 0.536D+00
 Gap=     0.237 Goal=   None    Shift=    0.000
 RMSDP=3.42D-07 MaxDP=5.95D-06 DE=-1.44D-09 OVMax= 1.84D-05

 Cycle  10  Pass 1  IDiag  1:
 E= -229.004068907589     Delta-E=       -0.000000001633 Rises=F Damp=F
 DIIS: error= 8.27D-07 at cycle   5 NSaved=   5.
 NSaved= 5 IEnMin= 5 EnMin= -229.004068907589     IErMin= 5 ErrMin= 8.27D-07
 ErrMax= 8.27D-07  0.00D+00 EMaxC= 1.00D-01 BMatC= 7.71D-11 BMatP= 2.14D-09
 IDIUse=1 WtCom= 1.00D+00 WtEn= 0.00D+00
 Coeff-Com: -0.131D-01-0.391D-02 0.135D+00 0.244D+00 0.639D+00
 Coeff:     -0.131D-01-0.391D-02 0.135D+00 0.244D+00 0.639D+00
 Gap=     0.237 Goal=   None    Shift=    0.000
 RMSDP=7.14D-08 MaxDP=1.49D-06 DE=-1.63D-09 OVMax= 3.94D-06

 Cycle  11  Pass 1  IDiag  1:
 E= -229.004068907650     Delta-E=       -0.000000000060 Rises=F Damp=F
 DIIS: error= 3.66D-07 at cycle   6 NSaved=   6.
 NSaved= 6 IEnMin= 6 EnMin= -229.004068907650     IErMin= 6 ErrMin= 3.66D-07
 ErrMax= 3.66D-07  0.00D+00 EMaxC= 1.00D-01 BMatC= 1.22D-11 BMatP= 7.71D-11
 IDIUse=1 WtCom= 1.00D+00 WtEn= 0.00D+00
 Coeff-Com: -0.986D-02-0.471D-02 0.379D-01 0.948D-01 0.362D+00 0.520D+00
 Coeff:     -0.986D-02-0.471D-02 0.379D-01 0.948D-01 0.362D+00 0.520D+00
 Gap=     0.237 Goal=   None    Shift=    0.000
 RMSDP=2.40D-08 MaxDP=5.91D-07 DE=-6.04D-11 OVMax= 9.29D-07

 Cycle  12  Pass 1  IDiag  1:
 E= -229.004068907660     Delta-E=       -0.000000000011 Rises=F Damp=F
 DIIS: error= 5.73D-08 at cycle   7 NSaved=   7.
 NSaved= 7 IEnMin= 7 EnMin= -229.004068907660     IErMin= 7 ErrMin= 5.73D-08
 ErrMax= 5.73D-08  0.00D+00 EMaxC= 1.00D-01 BMatC= 2.67D-13 BMatP= 1.22D-11
 IDIUse=1 WtCom= 1.00D+00 WtEn= 0.00D+00
 Coeff-Com:  0.932D-04-0.428D-03-0.103D-01-0.140D-01-0.308D-01 0.821D-01
 Coeff-Com:  0.973D+00
 Coeff:      0.932D-04-0.428D-03-0.103D-01-0.140D-01-0.308D-01 0.821D-01
 Coeff:      0.973D+00
 Gap=     0.237 Goal=   None    Shift=    0.000
 RMSDP=7.69D-09 MaxDP=7.44D-08 DE=-1.05D-11 OVMax= 4.45D-07

 SCF Done:  E(RB3LYP) =  -229.004068908     A.U. after   12 cycles
            NFock= 12  Conv=0.77D-08     -V/T= 2.0029
 KE= 2.283494492536D+02 PE=-7.726775249848D+02 EE= 1.981147474497D+02
 Leave Link  502 at Tue Apr 23 16:18:21 2019, MaxMem=   196608000 cpu:        44.7
 (Enter /cm/shared/c3ddb/gaussian/09.d01/g09/l508.exe)
 QCSCF skips out because SCF is already converged.
 Leave Link  508 at Tue Apr 23 16:18:22 2019, MaxMem=   196608000 cpu:         0.0
 (Enter /cm/shared/c3ddb/gaussian/09.d01/g09/l701.exe)
 Compute integral first derivatives.
 ... and contract with generalized density number  0.
 Leave Link  701 at Tue Apr 23 16:18:23 2019, MaxMem=   196608000 cpu:         6.0
 (Enter /cm/shared/c3ddb/gaussian/09.d01/g09/l702.exe)
 L702 exits ... SP integral derivatives will be done elsewhere.
 Leave Link  702 at Tue Apr 23 16:18:23 2019, MaxMem=   196608000 cpu:         0.2
 (Enter /cm/shared/c3ddb/gaussian/09.d01/g09/l703.exe)
 Compute integral first derivatives, UseDBF=F ICtDFT=           0.
 Integral derivatives from FoFJK, PRISM(SPDF).
 Calling FoFJK, ICntrl=      2127 FMM=F ISym2X=0 I1Cent= 0 IOpClX= 0 NMat=1 NMatS=1 NMatT=0.
 FoFJK:  IHMeth= 1 ICntrl=    2127 DoSepK=F KAlg= 0 I1Cent=   0 FoldK=F
 IRaf=         0 NMat=   1 IRICut=       1 DoRegI=T DoRafI=F ISym2E= 0.
 FoFCou: FMM=F IPFlag=           0 FMFlag=      100000 FMFlg1=         800
         NFxFlg=           0 DoJE=F BraDBF=F KetDBF=F FulRan=T
         wScrn=  0.000000 ICntrl=    2127 IOpCl=  0 I1Cent=           0 NGrid=           0
         NMat0=    1 NMatS0=      1 NMatT0=    0 NMatD0=    1 NMtDS0=    0 NMtDT0=    0
 Symmetry not used in FoFCou.
 Leave Link  703 at Tue Apr 23 16:18:24 2019, MaxMem=   196608000 cpu:         8.2
 (Enter /cm/shared/c3ddb/gaussian/09.d01/g09/l716.exe)
 Dipole        =-1.36951584D-01 1.52204066D-01 6.44369090D-01
 ***** Axes restored to original set *****
 -------------------------------------------------------------------
 Center     Atomic                   Forces (Hartrees/Bohr)
 Number     Number              X              Y              Z
 -------------------------------------------------------------------
      1        8           0.002191029   -0.000662426    0.000283685
      2        8          -0.002097877    0.000911467   -0.000452003
      3        6          -0.000558203   -0.000203426    0.000327494
      4        6           0.000547633   -0.000140730    0.000059577
      5        1          -0.000031948    0.000078622   -0.000087753
      6        1           0.000057097    0.000024128   -0.000112721
      7        1           0.000006766   -0.000035317    0.000046392
      8        1          -0.000114497    0.000027681   -0.000064670
 -------------------------------------------------------------------
 Cartesian Forces:  Max     0.002191029 RMS     0.000694997
 Leave Link  716 at Tue Apr 23 16:18:24 2019, MaxMem=   196608000 cpu:         0.2
 (Enter /cm/shared/c3ddb/gaussian/09.d01/g09/l103.exe)

 GradGradGradGradGradGradGradGradGradGradGradGradGradGradGradGradGradGrad
 Berny optimization.
 Using GEDIIS/GDIIS optimizer.
 FormGI is forming the generalized inverse of G from B-inverse, IUseBI=4.
 Internal  Forces:  Max     0.002447136 RMS     0.000564785
 Search for a local minimum.
 Step number   2 out of a maximum of   32
 All quantities printed in internal units (Hartrees-Bohrs-Radians)
 RMS Force = .56478D-03 SwitMx=.10000D-02 MixMth= 2
 Mixed Optimization -- En-DIIS/RFO-DIIS
 Update second derivatives using D2CorX and points    1    2
 DE= -7.96D-04 DEPred=-8.62D-04 R= 9.24D-01
 TightC=F SS=  1.41D+00  RLast= 1.80D-01 DXNew= 5.0454D-01 5.3951D-01
 Trust test= 9.24D-01 RLast= 1.80D-01 DXMaxT set to 5.05D-01
 ITU=  1  0
 Use linear search instead of GDIIS.
     Eigenvalues ---    0.00449   0.00803   0.02433   0.03237   0.04446
     Eigenvalues ---    0.09501   0.10020   0.12191   0.16114   0.19289
     Eigenvalues ---    0.23879   0.30152   0.34627   0.35205   0.35381
     Eigenvalues ---    0.40101   0.48790   0.59210
 RFO step:  Lambda=-3.07950151D-05 EMin= 4.48762999D-03
 Quartic linear search produced a step of -0.07159.
 Iteration  1 RMS(Cart)=  0.01676683 RMS(Int)=  0.00015529
 Iteration  2 RMS(Cart)=  0.00020671 RMS(Int)=  0.00000167
 Iteration  3 RMS(Cart)=  0.00000004 RMS(Int)=  0.00000167
 ITry= 1 IFail=0 DXMaxC= 3.95D-02 DCOld= 1.00D+10 DXMaxT= 5.05D-01 DXLimC= 3.00D+00 Rises=F
 Variable       Old X    -DE/DX   Delta X   Delta X   Delta X     New X
                                 (Linear)    (Quad)   (Total)
    R1        2.73897   0.00245   0.00557   0.00279   0.00837   2.74734
    R2        2.59427  -0.00020   0.00020  -0.00180  -0.00161   2.59267
    R3        1.82977   0.00007   0.00071  -0.00067   0.00004   1.82981
    R4        2.50747   0.00062   0.00168  -0.00070   0.00097   2.50845
    R5        2.04859   0.00007   0.00087  -0.00101  -0.00014   2.04845
    R6        2.04317   0.00006   0.00076  -0.00088  -0.00012   2.04305
    R7        2.04585   0.00003   0.00069  -0.00076  -0.00007   2.04578
    A1        1.89028   0.00063  -0.00026   0.00149   0.00123   1.89151
    A2        1.75439   0.00022  -0.00102  -0.00072  -0.00174   1.75265
    A3        2.10591   0.00004  -0.00096   0.00155   0.00059   2.10651
    A4        1.99043   0.00000   0.00077  -0.00086  -0.00009   1.99034
    A5        2.18489  -0.00003   0.00012  -0.00053  -0.00041   2.18448
    A6        2.09116   0.00006  -0.00025  -0.00039  -0.00063   2.09052
    A7        2.11945  -0.00004  -0.00007   0.00066   0.00060   2.12004
    A8        2.07153  -0.00002   0.00025  -0.00014   0.00011   2.07164
    D1        1.80705   0.00001   0.00127   0.01823   0.01951   1.82656
    D2       -2.68362  -0.00022   0.00688  -0.03724  -0.03036  -2.71397
    D3        0.52170  -0.00026   0.00796  -0.03992  -0.03195   0.48975
    D4       -3.01371  -0.00011   0.00295  -0.00724  -0.00428  -3.01799
    D5        0.07799  -0.00007   0.00156  -0.00409  -0.00253   0.07546
    D6        0.05667  -0.00006   0.00177  -0.00425  -0.00248   0.05419
    D7       -3.13482  -0.00002   0.00037  -0.00110  -0.00073  -3.13555
         Item               Value     Threshold  Converged?
 Maximum Force            0.002447     0.000015     NO 
 RMS     Force            0.000565     0.000010     NO 
 Maximum Displacement     0.039494     0.000060     NO 
 RMS     Displacement     0.016715     0.000040     NO 
 Predicted change in Energy=-1.770351D-05
 Lowest energy point so far.  Saving SCF results.
 GradGradGradGradGradGradGradGradGradGradGradGradGradGradGradGradGradGrad

 Leave Link  103 at Tue Apr 23 16:18:26 2019, MaxMem=   196608000 cpu:        13.9
 (Enter /cm/shared/c3ddb/gaussian/09.d01/g09/l202.exe)
                          Input orientation:                          
 ---------------------------------------------------------------------
 Center     Atomic      Atomic             Coordinates (Angstroms)
 Number     Number       Type             X           Y           Z
 ---------------------------------------------------------------------
      1          8           0       -0.474103   -0.465691    0.297480
      2          8           0       -1.707281    0.204335   -0.081926
      3          6           0        0.567766    0.406951    0.109499
      4          6           0        1.799969   -0.042761   -0.094117
      5          1           0        0.292148    1.450917    0.205484
      6          1           0        2.626997    0.652840   -0.126017
      7          1           0        2.007186   -1.101294   -0.186560
      8          1           0       -1.880879   -0.218543   -0.935525
 ---------------------------------------------------------------------
                    Distance matrix (angstroms):
                    1          2          3          4          5
     1  O    0.000000
     2  O    1.453827   0.000000
     3  C    1.371982   2.292060   0.000000
     4  C    2.345980   3.515965   1.327412   0.000000
     5  H    2.066154   2.373666   1.083994   2.143446   0.000000
     6  H    3.323745   4.357645   2.087189   1.081135   2.489647
     7  H    2.606738   3.938640   2.105798   1.082579   3.099813
     8  H    1.886904   0.968295   2.734810   3.779882   2.968341
                    6          7          8
     6  H    0.000000
     7  H    1.861402   0.000000
     8  H    4.662141   4.056754   0.000000
 Stoichiometry    C2H4O2
 Framework group  C1[X(C2H4O2)]
 Deg. of freedom    18
 Full point group                 C1      NOp   1
 RotChk:  IX=0 Diff= 6.57D-03
 Largest Abelian subgroup         C1      NOp   1
 Largest concise Abelian subgroup C1      NOp   1
                         Standard orientation:                         
 ---------------------------------------------------------------------
 Center     Atomic      Atomic             Coordinates (Angstroms)
 Number     Number       Type             X           Y           Z
 ---------------------------------------------------------------------
      1          8           0        0.467917   -0.508991   -0.242408
      2          8           0        1.701029    0.190452    0.079813
      3          6           0       -0.576333    0.370463   -0.106619
      4          6           0       -1.804879   -0.068940    0.137563
      5          1           0       -0.306142    1.406382   -0.276652
      6          1           0       -2.634730    0.623962    0.128116
      7          1           0       -2.006634   -1.119368    0.304512
      8          1           0        1.883207   -0.171804    0.959117
 ---------------------------------------------------------------------
 Rotational constants (GHZ):     40.1452729      4.6007385      4.2968078
 Leave Link  202 at Tue Apr 23 16:18:26 2019, MaxMem=   196608000 cpu:         0.3
 (Enter /cm/shared/c3ddb/gaussian/09.d01/g09/l301.exe)
 Standard basis: 6-311G(2d,d,p) (5D, 7F)
 Ernie: Thresh=  0.10000D-02 Tol=  0.10000D-05 Strict=F.
 There are   100 symmetry adapted cartesian basis functions of A   symmetry.
 There are    96 symmetry adapted basis functions of A   symmetry.
    96 basis functions,   160 primitive gaussians,   100 cartesian basis functions
    16 alpha electrons       16 beta electrons
       nuclear repulsion energy       117.0859071716 Hartrees.
 IExCor=  402 DFT=T Ex+Corr=B3LYP ExCW=0 ScaHFX=  0.200000
 ScaDFX=  0.800000  0.720000  1.000000  0.810000 ScalE2=  1.000000  1.000000
 IRadAn=      0 IRanWt=     -1 IRanGd=            0 ICorTp=0 IEmpDi=  4
 NAtoms=    8 NActive=    8 NUniq=    8 SFac= 1.00D+00 NAtFMM=   60 NAOKFM=F Big=F
 Integral buffers will be    131072 words long.
 Raffenetti 2 integral format.
 Two-electron integral symmetry is turned on.
 Leave Link  301 at Tue Apr 23 16:18:27 2019, MaxMem=   196608000 cpu:         0.4
 (Enter /cm/shared/c3ddb/gaussian/09.d01/g09/l302.exe)
 NPDir=0 NMtPBC=     1 NCelOv=     1 NCel=       1 NClECP=     1 NCelD=      1
         NCelK=      1 NCelE2=     1 NClLst=     1 CellRange=     0.0.
 One-electron integrals computed using PRISM.
 NBasis=    96 RedAO= T EigKep=  2.65D-03  NBF=    96
 NBsUse=    96 1.00D-06 EigRej= -1.00D+00 NBFU=    96
 Precomputing XC quadrature grid using
 IXCGrd= 4 IRadAn=           0 IRanWt=          -1 IRanGd=           0 AccXCQ= 0.00D+00.
 Generated NRdTot=       0 NPtTot=           0 NUsed=           0 NTot=          32
 NSgBfM=   100   100   100   100   100 MxSgAt=     8 MxSgA2=     8.
 Leave Link  302 at Tue Apr 23 16:18:27 2019, MaxMem=   196608000 cpu:         3.9
 (Enter /cm/shared/c3ddb/gaussian/09.d01/g09/l303.exe)
 DipDrv:  MaxL=1.
 Leave Link  303 at Tue Apr 23 16:18:27 2019, MaxMem=   196608000 cpu:         0.9
 (Enter /cm/shared/c3ddb/gaussian/09.d01/g09/l401.exe)
 Initial guess from the checkpoint file:  "check.chk"
 B after Tr=     0.000000    0.000000    0.000000
         Rot=    0.999997    0.002195   -0.000334    0.000587 Ang=   0.26 deg.
 Guess basis will be translated and rotated to current coordinates.
 JPrj=2 DoOrth=T DoCkMO=T.
 Generating alternative initial guess.
 ExpMin= 1.03D-01 ExpMax= 8.59D+03 ExpMxC= 1.30D+03 IAcc=1 IRadAn=         1 AccDes= 0.00D+00
 Harris functional with IExCor=  402 and IRadAn=       1 diagonalized for initial guess.
 HarFok:  IExCor=  402 AccDes= 0.00D+00 IRadAn=         1 IDoV= 1 UseB2=F ITyADJ=14
 ICtDFT=  3500011 ScaDFX=  1.000000  1.000000  1.000000  1.000000
 FoFCou: FMM=F IPFlag=           0 FMFlag=      100000 FMFlg1=           0
         NFxFlg=           0 DoJE=T BraDBF=F KetDBF=T FulRan=T
         wScrn=  0.000000 ICntrl=     500 IOpCl=  0 I1Cent=   200000004 NGrid=           0
         NMat0=    1 NMatS0=      1 NMatT0=    0 NMatD0=    1 NMtDS0=    0 NMtDT0=    0
 Petite list used in FoFCou.
 Harris En= -229.046400007995    
 Leave Link  401 at Tue Apr 23 16:18:29 2019, MaxMem=   196608000 cpu:         8.8
 (Enter /cm/shared/c3ddb/gaussian/09.d01/g09/l502.exe)
 Closed shell SCF:
 Using DIIS extrapolation, IDIIS=  1040.
 Integral symmetry usage will be decided dynamically.
 Keep R1 ints in memory in canonical form, NReq=11801944.
 IVT=       37490 IEndB=       37490 NGot=   196608000 MDV=   185729015
 LenX=   185729015 LenY=   185718574
 Requested convergence on RMS density matrix=1.00D-08 within  64 cycles.
 Requested convergence on MAX density matrix=1.00D-06.
 Requested convergence on             energy=1.00D-06.
 No special actions if energy rises.
 FoFCou: FMM=F IPFlag=           0 FMFlag=           0 FMFlg1=           0
         NFxFlg=           0 DoJE=F BraDBF=F KetDBF=F FulRan=T
         wScrn=  0.000000 ICntrl=     600 IOpCl=  0 I1Cent=           0 NGrid=           0
         NMat0=    1 NMatS0=   4656 NMatT0=    0 NMatD0=    1 NMtDS0=    0 NMtDT0=    0
 Symmetry not used in FoFCou.
 Integral accuracy reduced to 1.0D-05 until final iterations.

 Cycle   1  Pass 0  IDiag  1:
 E= -229.003814076221    
 DIIS: error= 9.36D-04 at cycle   1 NSaved=   1.
 NSaved= 1 IEnMin= 1 EnMin= -229.003814076221     IErMin= 1 ErrMin= 9.36D-04
 ErrMax= 9.36D-04  0.00D+00 EMaxC= 1.00D-01 BMatC= 1.51D-04 BMatP= 1.51D-04
 IDIUse=3 WtCom= 9.91D-01 WtEn= 9.36D-03
 Coeff-Com:  0.100D+01
 Coeff-En:   0.100D+01
 Coeff:      0.100D+01
 Gap=     0.758 Goal=   None    Shift=    0.000
 RMSDP=1.84D-04 MaxDP=1.66D-03              OVMax= 6.84D-03

 Cycle   2  Pass 0  IDiag  1:
 E= -229.004085477712     Delta-E=       -0.000271401491 Rises=F Damp=F
 DIIS: error= 1.65D-04 at cycle   2 NSaved=   2.
 NSaved= 2 IEnMin= 2 EnMin= -229.004085477712     IErMin= 2 ErrMin= 1.65D-04
 ErrMax= 1.65D-04  0.00D+00 EMaxC= 1.00D-01 BMatC= 4.10D-06 BMatP= 1.51D-04
 IDIUse=3 WtCom= 9.98D-01 WtEn= 1.65D-03
 Coeff-Com: -0.579D-01 0.106D+01
 Coeff-En:   0.000D+00 0.100D+01
 Coeff:     -0.578D-01 0.106D+01
 Gap=     0.235 Goal=   None    Shift=    0.000
 RMSDP=3.55D-05 MaxDP=5.28D-04 DE=-2.71D-04 OVMax= 1.30D-03

 Cycle   3  Pass 0  IDiag  1:
 E= -229.004085189712     Delta-E=        0.000000288000 Rises=F Damp=F
 DIIS: error= 2.92D-04 at cycle   3 NSaved=   3.
 NSaved= 3 IEnMin= 2 EnMin= -229.004085477712     IErMin= 2 ErrMin= 1.65D-04
 ErrMax= 2.92D-04  0.00D+00 EMaxC= 1.00D-01 BMatC= 9.33D-06 BMatP= 4.10D-06
 IDIUse=3 WtCom= 3.69D-01 WtEn= 6.31D-01
 Coeff-Com: -0.533D-01 0.678D+00 0.375D+00
 Coeff-En:   0.000D+00 0.517D+00 0.483D+00
 Coeff:     -0.197D-01 0.577D+00 0.443D+00
 Gap=     0.235 Goal=   None    Shift=    0.000
 RMSDP=2.31D-05 MaxDP=4.53D-04 DE= 2.88D-07 OVMax= 8.58D-04

 Cycle   4  Pass 0  IDiag  1:
[...]
 Coeff-Com: -0.142D+00 0.836D-01 0.108D+01
 Coeff:      0.237D-04-0.477D-03-0.193D-03 0.725D-02 0.145D-01-0.453D-01
 Coeff:     -0.142D+00 0.836D-01 0.108D+01
 Gap=     0.409 Goal=   None    Shift=    0.000
 RMSDP=1.36D-07 MaxDP=2.71D-06 DE=-2.66D-09 OVMax= 1.21D-05

 Cycle  10  Pass 1  IDiag  1:
 E= -227.728180548742     Delta-E=       -0.000000000431 Rises=F Damp=F
 DIIS: error= 2.61D-07 at cycle  10 NSaved=  10.
 NSaved=10 IEnMin=10 EnMin= -227.728180548742     IErMin=10 ErrMin= 2.61D-07
 ErrMax= 2.61D-07  0.00D+00 EMaxC= 1.00D-01 BMatC= 2.04D-11 BMatP= 1.28D-10
 IDIUse=1 WtCom= 1.00D+00 WtEn= 0.00D+00
 Coeff-Com: -0.112D-04 0.255D-03-0.322D-03-0.520D-02-0.185D-02 0.449D-01
 Coeff-Com:  0.344D-01-0.178D+00-0.465D+00 0.157D+01
 Coeff:     -0.112D-04 0.255D-03-0.322D-03-0.520D-02-0.185D-02 0.449D-01
 Coeff:      0.344D-01-0.178D+00-0.465D+00 0.157D+01
 Gap=     0.409 Goal=   None    Shift=    0.000
 RMSDP=9.13D-08 MaxDP=2.23D-06 DE=-4.31D-10 OVMax= 7.89D-06

 Cycle  11  Pass 1  IDiag  1:
 E= -227.728180548841     Delta-E=       -0.000000000099 Rises=F Damp=F
 DIIS: error= 6.97D-08 at cycle  11 NSaved=  11.
 NSaved=11 IEnMin=11 EnMin= -227.728180548841     IErMin=11 ErrMin= 6.97D-08
 ErrMax= 6.97D-08  0.00D+00 EMaxC= 1.00D-01 BMatC= 2.25D-12 BMatP= 2.04D-11
 IDIUse=1 WtCom= 1.00D+00 WtEn= 0.00D+00
 Coeff-Com: -0.613D-06 0.705D-05 0.901D-04 0.149D-03-0.759D-03-0.498D-02
 Coeff-Com:  0.108D-01 0.358D-01-0.414D-01-0.360D+00 0.136D+01
 Coeff:     -0.613D-06 0.705D-05 0.901D-04 0.149D-03-0.759D-03-0.498D-02
 Coeff:      0.108D-01 0.358D-01-0.414D-01-0.360D+00 0.136D+01
 Gap=     0.409 Goal=   None    Shift=    0.000
 RMSDP=2.76D-08 MaxDP=3.64D-07 DE=-9.94D-11 OVMax= 2.50D-06

 Cycle  12  Pass 1  IDiag  1:
 E= -227.728180548851     Delta-E=       -0.000000000010 Rises=F Damp=F
 DIIS: error= 3.04D-08 at cycle  12 NSaved=  12.
 NSaved=12 IEnMin=12 EnMin= -227.728180548851     IErMin=12 ErrMin= 3.04D-08
 ErrMax= 3.04D-08  0.00D+00 EMaxC= 1.00D-01 BMatC= 2.31D-13 BMatP= 2.25D-12
 IDIUse=1 WtCom= 1.00D+00 WtEn= 0.00D+00
 Coeff-Com:  0.102D-05-0.243D-04 0.448D-04 0.512D-03 0.309D-03-0.558D-02
 Coeff-Com: -0.311D-02 0.238D-01 0.408D-01-0.212D+00 0.157D+00 0.999D+00
 Coeff:      0.102D-05-0.243D-04 0.448D-04 0.512D-03 0.309D-03-0.558D-02
 Coeff:     -0.311D-02 0.238D-01 0.408D-01-0.212D+00 0.157D+00 0.999D+00
 Gap=     0.409 Goal=   None    Shift=    0.000
 RMSDP=6.64D-09 MaxDP=1.20D-07 DE=-9.89D-12 OVMax= 6.00D-07

 SCF Done:  E(RHF) =  -227.728180549     A.U. after   12 cycles
            NFock= 12  Conv=0.66D-08     -V/T= 2.0015
 KE= 2.273816973032D+02 PE=-7.708804798581D+02 EE= 1.986902967999D+02
 Leave Link  502 at Tue Apr 23 16:32:52 2019, MaxMem=   196608000 cpu:       129.1
 (Enter /cm/shared/c3ddb/gaussian/09.d01/g09/l508.exe)
 QCSCF skips out because SCF is already converged.
 Leave Link  508 at Tue Apr 23 16:32:52 2019, MaxMem=   196608000 cpu:         0.0
 (Enter /cm/shared/c3ddb/gaussian/09.d01/g09/l801.exe)
 ExpMin= 3.60D-02 ExpMax= 8.59D+03 ExpMxC= 1.30D+03 IAcc=3 IRadAn=         5 AccDes= 0.00D+00
 HarFok:  IExCor=  205 AccDes= 0.00D+00 IRadAn=         5 IDoV=-2 UseB2=F ITyADJ=14
 ICtDFT= 12500011 ScaDFX=  1.000000  1.000000  1.000000  1.000000
 Largest valence mixing into a core orbital is  1.29D-04
 Largest core mixing into a valence orbital is  3.87D-05
 Range of M.O.s used for correlation:     5   176
 NBasis=   176 NAE=    16 NBE=    16 NFC=     4 NFV=     0
 NROrb=    172 NOA=    12 NOB=    12 NVA=   160 NVB=   160

 **** Warning!!: The largest alpha MO coefficient is  0.40649021D+02

 Leave Link  801 at Tue Apr 23 16:32:53 2019, MaxMem=   196608000 cpu:         5.1
 (Enter /cm/shared/c3ddb/gaussian/09.d01/g09/l906.exe)
 FulOut=F Deriv=F AODrv=F NAtomX=     8
   MMem=           0  MDisk=          12 MDiskD=          12
  W3Min=      376320 MinDsk=      683834 NBas6D=         196
 NBas2D=       19726    NTT=       19306    LW2=     2000000
    MDV=   196451536 MDiskM=        4960 NBas2p=       19329
 Disk-based method using OVN memory for 12 occupieds at a time.
 Permanent disk used for amplitudes and <ij||ab> integrals=     9051840 words.
 Estimated scratch disk usage=   124121472 words.
 IMap=   1   2   3   4   5   6   7   8   9  10  11  12
 Actual    scratch disk usage=    93550464 words.
 JobTyp=1 Pass  1:  I=   1 to  12 NPSUse=  8 ParTrn=T ParDer=T DoDerP=F.
 (rs|ai) integrals will be sorted in core.
 Spin components of T(2) and E(2):
     alpha-alpha T2 =       0.2864151460D-01 E2=     -0.9828923160D-01
     alpha-beta  T2 =       0.1704249269D+00 E2=     -0.6027236122D+00
     beta-beta   T2 =       0.2864151460D-01 E2=     -0.9828923160D-01
 The integrals were generated   1 times.
 ANorm=    0.1108019836D+01
 E2 =    -0.7993020754D+00 EUMP2 =    -0.22852748262423D+03
 Leave Link  906 at Tue Apr 23 16:33:20 2019, MaxMem=   196608000 cpu:       167.9
 (Enter /cm/shared/c3ddb/gaussian/09.d01/g09/l904.exe)

 Complete Basis Set (CBS) Extrapolation:
 M. R. Nyden and G. A. Petersson, JCP 75, 1843 (1981)
 G. A. Petersson and M. A. Al-Laham, JCP 94, 6081 (1991)
 G. A. Petersson, T. Tensfeldt, and J. A. Montgomery, JCP 94, 6091 (1991)
 J. A. Montgomery, J. W. Ochterski, and G. A. Petersson, JCP 101, 5900 (1994)
 
 Available Memory in CBS =  196608000
 Minimum Number of PNO for Extrapolation =  10
 Absolute Overlaps: IRadAn =     99590
 LocTrn: ILocal=3 LocCor=F DoCore=F.
 LocMO: Using population method
 Initial Trace= 0.12000000D+02 Initial TraceA= 0.34676338D+01
 RMSG= 0.19872853D-08
 There are a total of      403560 grid points.
 ElSum from         orbitals=       15.9999999345
 E2(CBS)=      -0.879129 CBS-Int=       0.025316 OIii=       6.591070
 Leave Link  904 at Tue Apr 23 16:34:00 2019, MaxMem=   196608000 cpu:       285.7
 (Enter /cm/shared/c3ddb/gaussian/09.d01/g09/l601.exe)
 Copying SCF densities to generalized density rwf, IOpCl= 0 IROHF=0.

 **********************************************************************

            Population analysis using the SCF density.

 **********************************************************************

 Orbital symmetries:
       Occupied  (A) (A) (A) (A) (A) (A) (A) (A) (A) (A) (A) (A)
                 (A) (A) (A) (A)
       Virtual   (A) (A) (A) (A) (A) (A) (A) (A) (A) (A) (A) (A)
                 (A) (A) (A) (A) (A) (A) (A) (A) (A) (A) (A) (A)
                 (A) (A) (A) (A) (A) (A) (A) (A) (A) (A) (A) (A)
                 (A) (A) (A) (A) (A) (A) (A) (A) (A) (A) (A) (A)
                 (A) (A) (A) (A) (A) (A) (A) (A) (A) (A) (A) (A)
                 (A) (A) (A) (A) (A) (A) (A) (A) (A) (A) (A) (A)
                 (A) (A) (A) (A) (A) (A) (A) (A) (A) (A) (A) (A)
                 (A) (A) (A) (A) (A) (A) (A) (A) (A) (A) (A) (A)
                 (A) (A) (A) (A) (A) (A) (A) (A) (A) (A) (A) (A)
                 (A) (A) (A) (A) (A) (A) (A) (A) (A) (A) (A) (A)
                 (A) (A) (A) (A) (A) (A) (A) (A) (A) (A) (A) (A)
                 (A) (A) (A) (A) (A) (A) (A) (A) (A) (A) (A) (A)
                 (A) (A) (A) (A) (A) (A) (A) (A) (A) (A) (A) (A)
                 (A) (A) (A) (A)
 The electronic state is 1-A.
 Alpha  occ. eigenvalues --  -20.64916 -20.64468 -11.30122 -11.22704  -1.49921
 Alpha  occ. eigenvalues --   -1.25895  -1.02243  -0.81002  -0.74566  -0.67794
 Alpha  occ. eigenvalues --   -0.65576  -0.61153  -0.55926  -0.52056  -0.51102
 Alpha  occ. eigenvalues --   -0.36466
 Alpha virt. eigenvalues --    0.04455   0.05536   0.06208   0.07756   0.11144
 Alpha virt. eigenvalues --    0.12460   0.13679   0.15386   0.17532   0.18453
 Alpha virt. eigenvalues --    0.20094   0.20542   0.21275   0.23042   0.25066
 Alpha virt. eigenvalues --    0.26934   0.28918   0.29725   0.30855   0.32539
 Alpha virt. eigenvalues --    0.34608   0.35925   0.38650   0.40990   0.46019
 Alpha virt. eigenvalues --    0.46766   0.50657   0.51975   0.63555   0.65521
 Alpha virt. eigenvalues --    0.67847   0.69617   0.70434   0.72338   0.75806
 Alpha virt. eigenvalues --    0.78701   0.79132   0.83272   0.83782   0.86312
 Alpha virt. eigenvalues --    0.89818   0.91863   0.92118   0.97886   1.01694
 Alpha virt. eigenvalues --    1.08257   1.09651   1.11710   1.17958   1.18398
 Alpha virt. eigenvalues --    1.22579   1.24733   1.29178   1.30763   1.32971
 Alpha virt. eigenvalues --    1.37100   1.38435   1.44009   1.44908   1.51770
 Alpha virt. eigenvalues --    1.55907   1.59175   1.61565   1.65219   1.71741
 Alpha virt. eigenvalues --    1.74130   1.79232   1.81920   1.84291   1.87830
 Alpha virt. eigenvalues --    1.98597   2.07008   2.16028   2.19439   2.24793
 Alpha virt. eigenvalues --    2.45574   2.51793   2.55520   2.60854   2.77544
 Alpha virt. eigenvalues --    2.81545   2.91964   3.01979   3.03503   3.05918
 Alpha virt. eigenvalues --    3.06998   3.11116   3.13629   3.19496   3.26116
 Alpha virt. eigenvalues --    3.30024   3.39872   3.43184   3.45262   3.47294
 Alpha virt. eigenvalues --    3.50299   3.54718   3.59093   3.63407   3.68822
 Alpha virt. eigenvalues --    3.72700   3.74900   3.89629   3.94187   3.96802
 Alpha virt. eigenvalues --    3.98599   4.04223   4.08558   4.10221   4.12409
 Alpha virt. eigenvalues --    4.20249   4.35705   4.45605   4.47532   4.54068
 Alpha virt. eigenvalues --    4.56619   4.69514   4.71856   4.85181   4.94531
 Alpha virt. eigenvalues --    4.98904   5.01421   5.05210   5.20930   5.33142
 Alpha virt. eigenvalues --    5.36532   5.48736   5.50779   5.57257   5.59860
 Alpha virt. eigenvalues --    5.61007   5.63356   5.76659   5.81178   5.85704
 Alpha virt. eigenvalues --    5.94797   6.00156   6.02483   6.19857   6.28740
 Alpha virt. eigenvalues --    6.37015   6.46817   6.72761   7.12107   7.23697
 Alpha virt. eigenvalues --    7.39178   7.42252   7.52527   7.65190   7.66843
 Alpha virt. eigenvalues --    7.78328   7.85447   7.94543   8.13569   8.28402
 Alpha virt. eigenvalues --    8.57404  25.22871  25.99604  51.59220  51.65671
          Condensed to atoms (all electrons):
               1          2          3          4          5          6
     1  O    7.978646   0.151408   0.227751  -0.174409  -0.022599   0.006097
     2  O    0.151408   7.896260  -0.062899   0.037129  -0.019603   0.000250
     3  C    0.227751  -0.062899   4.981815   0.524848   0.414983  -0.033879
     4  C   -0.174409   0.037129   0.524848   5.033736  -0.036574   0.433586
     5  H   -0.022599  -0.019603   0.414983  -0.036574   0.510866  -0.009815
     6  H    0.006097   0.000250  -0.033879   0.433586  -0.009815   0.552157
     7  H    0.001899   0.001644  -0.034589   0.415946   0.004196  -0.028846
     8  H   -0.040647   0.241228   0.028865  -0.021849  -0.000319   0.000308
               7          8
     1  O    0.001899  -0.040647
     2  O    0.001644   0.241228
     3  C   -0.034589   0.028865
     4  C    0.415946  -0.021849
     5  H    0.004196  -0.000319
     6  H   -0.028846   0.000308
     7  H    0.537352  -0.001303
     8  H   -0.001303   0.503554
 Mulliken charges:
               1
     1  O   -0.128147
     2  O   -0.245417
     3  C   -0.046896
     4  C   -0.212413
     5  H    0.158865
     6  H    0.080143
     7  H    0.103701
     8  H    0.290162
 Sum of Mulliken charges =   0.00000
 Mulliken charges with hydrogens summed into heavy atoms:
               1
     1  O   -0.128147
     2  O    0.044746
     3  C    0.111969
     4  C   -0.028568
 Electronic spatial extent (au):  <R**2>=            300.6708
 Charge=              0.0000 electrons
 Dipole moment (field-independent basis, Debye):
    X=             -0.4034    Y=              0.4456    Z=              1.6128  Tot=              1.7211
 Quadrupole moment (field-independent basis, Debye-Ang):
   XX=            -21.8596   YY=            -23.1972   ZZ=            -24.1840
   XY=             -0.7131   XZ=              3.2877   YZ=             -1.3648
 Traceless Quadrupole moment (field-independent basis, Debye-Ang):
   XX=              1.2206   YY=             -0.1169   ZZ=             -1.1037
   XY=             -0.7131   XZ=              3.2877   YZ=             -1.3648
 Octapole moment (field-independent basis, Debye-Ang**2):
  XXX=              8.2934  YYY=             -0.1125  ZZZ=              1.6996  XYY=              0.9927
  XXY=             -2.5776  XXZ=              8.0825  XZZ=             10.1543  YZZ=             -1.1696
  YYZ=             -0.0733  XYZ=             -0.4538
 Hexadecapole moment (field-independent basis, Debye-Ang**3):
 XXXX=           -276.4959 YYYY=            -47.9134 ZZZZ=            -31.2978 XXXY=             -6.3847
 XXXZ=             13.7449 YYYX=              0.9768 YYYZ=             -1.6616 ZZZX=              6.5909
 ZZZY=             -1.0427 XXYY=            -54.8063 XXZZ=            -53.0384 YYZZ=            -14.4667
 XXYZ=             -2.4412 YYXZ=              0.3240 ZZXY=             -0.1602
 N-N= 1.170803052061D+02 E-N=-7.708804799684D+02  KE= 2.273816973032D+02
 Leave Link  601 at Tue Apr 23 16:34:00 2019, MaxMem=   196608000 cpu:         1.2
 (Enter /cm/shared/c3ddb/gaussian/09.d01/g09/l9999.exe)
 1\1\GINC-NODE055\SP\RMP2-FC\CBSB3\C2H4O2\MATTSJ\23-Apr-2019\0\\#P Geom
 =AllCheck Guess=TCheck SCRF=Check MP2/CBSB3 CBSExtrap=(NMin=10,MinPop)
 \\name\\0,1\O,0,-0.4734393865,-0.4691183842,0.2885516521\O,0,-1.707488
 0628,0.2052934611,-0.0778529816\C,0,0.5684772392,0.4050022714,0.106289
 7417\C,0,1.8023223267,-0.04276641,-0.09212413\H,0,0.2908434753,1.44857
 82514,0.2006772093\H,0,2.6278963956,0.6546673057,-0.1228772192\H,0,2.0
 121150423,-1.1009968198,-0.1827112683\H,0,-1.8889257797,-0.2139065356,
 -0.931635174\\Version=AS64L-G09RevD.01\State=1-A\HF=-227.7281805\MP2=-
 228.5274826\E2(CBS)=-0.8791292\CBS-Int=-0.8538137\OIii=6.5910696\RMSD=
 6.641e-09\PG=C01 [X(C2H4O2)]\\@


 REPARTEE - WHAT YOU THINK OF AFTER YOU BECOME A DEPARTEE.
 Diagonal vibrational polarizability:
        0.0000000       0.0000000       0.0000000

 Complete Basis Set (CBS) Extrapolation:
 M. R. Nyden and G. A. Petersson, JCP 75, 1843 (1981)
 G. A. Petersson and M. A. Al-Laham, JCP 94, 6081 (1991)
 G. A. Petersson, T. Tensfeldt, and J. A. Montgomery, JCP 94, 6091 (1991)
 J. A. Montgomery, J. W. Ochterski, and G. A. Petersson, JCP 101, 5900 (1994)

 Temperature=               298.150000 Pressure=                       1.000000
 E(ZPE)=                      0.058487 E(Thermal)=                     0.063526
 E(SCF)=                   -227.728181 DE(MP2)=                       -0.799302
 DE(CBS)=                    -0.079827 DE(MP34)=                      -0.030124
 DE(CCSD)=                   -0.022622 DE(Int)=                        0.025316
 DE(Empirical)=              -0.038162
 CBS-QB3 (0 K)=            -228.614416 CBS-QB3 Energy=              -228.609377
 CBS-QB3 Enthalpy=         -228.608433 CBS-QB3 Free Energy=         -228.641687
 1\1\GINC-NODE055\Mixed\CBS-QB3\CBS-QB3\C2H4O2\MATTSJ\23-Apr-2019\0\\#P
  opt=(calcfc, noeigentest, tight) cbs-qb3 scf=xqc\\name\\0,1\O,0,-0.47
 34393865,-0.4691183842,0.2885516521\O,0,-1.7074880628,0.2052934611,-0.
 0778529816\C,0,0.5684772392,0.4050022714,0.1062897417\C,0,1.8023223267
 ,-0.04276641,-0.09212413\H,0,0.2908434753,1.4485782514,0.2006772093\H,
 0,2.6278963956,0.6546673057,-0.1228772192\H,0,2.0121150423,-1.10099681
 98,-0.1827112683\H,0,-1.8889257797,-0.2139065356,-0.931635174\\Version
 =AS64L-G09RevD.01\State=1-A\HF/CbsB3=-227.7281805\E2(CBS)/CbsB3=-0.879
 1292\CBS-Int/CbsB3=0.0253155\OIii/CbsB3=6.5910696\MP2/CbsB4=-228.31888
 7\MP4(SDQ)/CbsB4=-228.3490108\MP4(SDQ)/6-31+G(d')=-228.3091526\QCISD(T
 )/6-31+G(d')=-228.3317749\CBSQB3=-228.6144161\FreqCoord=-0.894670781,-
 0.88650527,0.5452835977,-3.2266848139,0.3879484184,-0.1471208138,1.074
 2662949,0.7653433762,0.2008585026,3.4058956006,-0.0808168026,-0.174089
 376,0.5496145158,2.7374161772,0.3792249666,4.9660044933,1.2371419159,-
 0.2322042923,3.8023463779,-2.0805824626,-0.3452742584,-3.569552409,-0.
 4042247703,-1.7605353346\PG=C01 [X(C2H4O2)]\NImag=0\\0.39122528,0.0439
 9728,0.29908272,0.02552565,-0.06656863,0.07293994,-0.15200274,0.061843
 52,-0.02283192,0.24308018,0.07144348,-0.09611709,0.00765891,-0.0468478
 4,0.19511266,-0.06462820,0.02230397,-0.04244307,0.11532397,0.19516118,
 0.43616357,-0.15870633,-0.05672548,0.02049902,-0.05598426,-0.01562922,
 -0.00336411,0.78614490,-0.10756482,-0.19960468,0.02793841,0.02083077,0
 .01676413,0.00102275,-0.16113503,0.67430031,0.02904339,0.03638034,-0.0
 4551473,-0.00803066,-0.01196617,-0.00483105,-0.09333267,0.02865927,0.1
 4787812,-0.05403153,-0.00938642,0.01101160,0.00043924,-0.00297721,-0.0
 0156563,-0.47524192,0.15748841,0.06523625,0.81663841,-0.02498945,0.017
 80331,0.00743207,-0.00778638,0.00013999,-0.00137433,0.15091140,-0.1780
 4028,-0.02859864,-0.05281801,0.66804891,0.01543224,0.00229678,0.008069
 47,-0.00381061,0.00205132,0.00087349,0.05813240,-0.02959197,-0.0589962
 7,-0.09181341,0.04809321,0.10389474,-0.00496734,-0.03299831,-0.0006655
 3,0.00356762,-0.00212446,0.00106940,-0.07321290,0.08050388,0.00935237,
 -0.00058867,0.02646880,0.00339581,0.07872547,-0.00443694,-0.02725042,-
 0.00054418,0.00298582,0.00330653,0.00018548,0.07372246,-0.31103273,-0.
 02443050,-0.00034218,-0.00255665,-0.00051489,-0.07289736,0.33582575,-0
 .00257497,0.00885383,0.00471225,0.00145345,-0.00170459,-0.00033182,0.0
 1171185,-0.02608362,-0.04259444,0.00281423,-0.00515454,0.00593486,-0.0
 1411302,0.02465848,0.02813807,-0.00276784,0.00333734,0.00036613,-0.000
 87541,-0.00003337,0.00082182,-0.01721678,-0.02278282,0.00004382,-0.220
 94213,-0.14147923,0.01050089,0.00053866,0.00037327,-0.00083926,0.23361
 610,0.00259380,0.00048268,-0.00148933,0.00068615,0.00011018,0.00008852
 ,0.01063603,0.00856608,-0.00054125,-0.14761443,-0.17797067,0.00416349,
 -0.00031872,0.00059112,0.00058654,0.15479346,0.17973140,-0.00429419,-0
 .00441389,0.00986211,0.00305801,0.00097314,0.00275908,0.00672265,0.004
 29105,-0.00327347,0.00696596,0.00423715,-0.02547071,-0.00057924,0.0000
 5767,-0.00606256,-0.01081002,-0.00375682,0.02124680,0.00230260,0.00016
 275,-0.00103926,0.00022888,-0.00084523,-0.00025198,-0.00151107,0.03154
 492,0.00280991,-0.06561150,0.05026283,0.00737538,-0.00397922,0.0004100
 5,0.00193033,0.00750780,-0.02083042,-0.00192635,0.06120045,-0.00113179
 ,0.00051000,0.00083604,0.00001305,0.00009836,-0.00000894,0.00007936,-0
 .00811375,-0.00071883,0.05486713,-0.32815539,-0.02644243,0.00104592,0.
 00097297,-0.00062940,0.00577855,-0.01141928,-0.00107356,-0.06072494,0.
 34613276,0.00088881,-0.00050404,-0.00701421,-0.00103018,0.00007911,-0.
 00147620,0.00209639,-0.00400997,0.00682262,0.00612230,-0.02487268,-0.0
 3367389,0.00145196,0.00003022,0.01016027,-0.00030938,0.00098333,0.0010
 6446,-0.00879913,0.02807915,0.02386318,-0.02105209,-0.01023068,-0.0328
 6570,-0.03845352,-0.00298614,-0.04740526,-0.00427165,0.00111468,-0.005
 12241,-0.00066189,-0.00056995,0.00078730,-0.00008363,0.00018488,-0.000
 38262,0.00013960,0.00005413,0.00086317,-0.00013792,0.00007271,-0.00042
 077,0.06452110,0.02008845,0.00509348,0.02473671,-0.03172509,-0.1194147
 6,-0.21737863,-0.00185952,-0.00283908,0.00121580,0.00078271,0.00073078
 ,-0.00005552,0.00032025,0.00014344,-0.00052670,0.00001280,-0.00009150,
 -0.00031474,0.00002004,-0.00002567,0.00021488,0.01236037,0.11640330,0.
 00060726,0.00165163,-0.00061176,-0.08413208,-0.19225290,-0.39071399,-0
 .00246553,-0.00222592,0.00050923,0.00122871,0.00023776,-0.00063168,0.0
 0008825,0.00055772,0.00004338,0.00022601,-0.00003448,-0.00012570,-0.00
 009891,-0.00004202,0.00025376,0.08454629,0.19210820,0.39127677\\-0.000
 00101,-0.00000037,-0.00000247,0.00000006,0.00000127,-0.00000219,0.0000
 0011,-0.00000065,0.00000088,-0.00000003,-0.00000098,0.00000118,0.00000
 053,-0.00000066,0.00000338,0.00000035,-0.00000146,0.00000401,-0.000000
 73,-0.00000082,-0.00000131,0.00000072,0.00000367,-0.00000348\\\@
 Job cpu time:       0 days  0 hours 10 minutes  9.8 seconds.
 File lengths (MBytes):  RWF=    793 Int=      0 D2E=      0 Chk=      3 Scr=      1
 Normal termination of Gaussian 09 at Tue Apr 23 16:34:01 2019.
