 Entering Gaussian System, Link 0=g16
 Initial command:
 /opt/g16/l1.exe "/scratch/alongd/g16/a19034-8458/Gau-27901.inp" -scrdir="/scratch/alongd/g16/a19034-8458/"
 Entering Link 1 = /opt/g16/l1.exe PID=     27903.
  
 Copyright (c) 1988-2017, Gaussian, Inc.  All Rights Reserved.
  
 This is part of the Gaussian(R) 16 program.  It is based on
 the Gaussian(R) 09 system (copyright 2009, Gaussian, Inc.),
 the Gaussian(R) 03 system (copyright 2003, Gaussian, Inc.),
 the Gaussian(R) 98 system (copyright 1998, Gaussian, Inc.),
 the Gaussian(R) 94 system (copyright 1995, Gaussian, Inc.),
 the Gaussian 92(TM) system (copyright 1992, Gaussian, Inc.),
 the Gaussian 90(TM) system (copyright 1990, Gaussian, Inc.),
 the Gaussian 88(TM) system (copyright 1988, Gaussian, Inc.),
 the Gaussian 86(TM) system (copyright 1986, Carnegie Mellon
 University), and the Gaussian 82(TM) system (copyright 1983,
 Carnegie Mellon University). Gaussian is a federally registered
 trademark of Gaussian, Inc.
  
 This software contains proprietary and confidential information,
 including trade secrets, belonging to Gaussian, Inc.
  
 This software is provided under written license and may be
 used, copied, transmitted, or stored only in accord with that
 written license.
  
 The following legend is applicable only to US Government
 contracts under FAR:
  
                    RESTRICTED RIGHTS LEGEND
  
 Use, reproduction and disclosure by the US Government is
 subject to restrictions as set forth in subparagraphs (a)
 and (c) of the Commercial Computer Software - Restricted
 Rights clause in FAR 52.227-19.
  
 Gaussian, Inc.
 340 Quinnipiac St., Bldg. 40, Wallingford CT 06492
  
  
 ---------------------------------------------------------------
 Warning -- This program may not be used in any manner that
 competes with the business of Gaussian, Inc. or will provide
 assistance to any competitor of Gaussian, Inc.  The licensee
 of this program is prohibited from giving any competitor of
 Gaussian, Inc. access to this program.  By using this program,
 the user acknowledges that Gaussian, Inc. is engaged in the
 business of creating and licensing software in the field of
 computational chemistry and represents and warrants to the
 licensee that it is not a competitor of Gaussian, Inc. and that
 it will not use this program in any manner prohibited above.
 ---------------------------------------------------------------
  

 Cite this work as:
 Gaussian 16, Revision B.01,
 M. J. Frisch, G. W. Trucks, H. B. Schlegel, G. E. Scuseria, 
 M. A. Robb, J. R. Cheeseman, G. Scalmani, V. Barone, 
 G. A. Petersson, H. Nakatsuji, X. Li, M. Caricato, A. V. Marenich, 
 J. Bloino, B. G. Janesko, R. Gomperts, B. Mennucci, H. P. Hratchian, 
 J. V. Ortiz, A. F. Izmaylov, J. L. Sonnenberg, D. Williams-Young, 
 F. Ding, F. Lipparini, F. Egidi, J. Goings, B. Peng, A. Petrone, 
 T. Henderson, D. Ranasinghe, V. G. Zakrzewski, J. Gao, N. Rega, 
 G. Zheng, W. Liang, M. Hada, M. Ehara, K. Toyota, R. Fukuda, 
 J. Hasegawa, M. Ishida, T. Nakajima, Y. Honda, O. Kitao, H. Nakai, 
 T. Vreven, K. Throssell, J. A. Montgomery, Jr., J. E. Peralta, 
 F. Ogliaro, M. J. Bearpark, J. J. Heyd, E. N. Brothers, K. N. Kudin, 
 V. N. Staroverov, T. A. Keith, R. Kobayashi, J. Normand, 
 K. Raghavachari, A. P. Rendell, J. C. Burant, S. S. Iyengar, 
 J. Tomasi, M. Cossi, J. M. Millam, M. Klene, C. Adamo, R. Cammi, 
 J. W. Ochterski, R. L. Martin, K. Morokuma, O. Farkas, 
 J. B. Foresman, and D. J. Fox, Gaussian, Inc., Wallingford CT, 2016.
 
 ******************************************
 Gaussian 16:  ES64L-G16RevB.01 20-Dec-2017
                10-Aug-2019 
 ******************************************
 %chk=check.chk
 %mem=14000mb
 %NProcShared=8
 Will use up to    8 processors via shared memory.
 ----------------------------------------------------------------------
 #P opt=(modredundant, calcfc, noeigentest, maxStep=5) scf=(tight, dire
 ct) integral=(grid=ultrafine, Acc2E=12) guess=mix wb97xd/def2tzvp scf=
 xqc iop(2/9=2000)
 ----------------------------------------------------------------------
 1/8=5,10=4,11=1,18=120,19=15,26=4,38=1/1,3;
 2/9=2000,12=2,17=6,18=5,40=1/2;
 3/5=44,7=101,11=2,25=1,27=12,30=1,71=2,74=-58,75=-5,140=1/1,2,3;
 4/13=-1/1;
 5/5=2,8=3,13=1,32=2,38=5,87=12/2,8;
 8/6=4,10=90,11=11,87=12/1;
 11/6=1,8=1,9=11,15=111,16=1,87=12/1,2,10;
 10/6=1,13=1,87=12/2;
 6/7=2,8=2,9=2,10=2,28=1,87=12/1;
 7/10=1,18=20,25=1,87=12/1,2,3,16;
 1/8=5,10=4,11=1,18=20,19=15,26=4/3(2);
 2/9=2000/2;
 99//99;
 2/9=2000/2;
 3/5=44,7=101,11=2,25=1,27=12,30=1,71=1,74=-58,75=-5/1,2,3;
 4/5=5,16=3,69=1/1;
 5/5=2,8=3,13=1,32=2,38=5,87=12/2,8;
 7/87=12/1,2,3,16;
 1/8=5,11=1,18=20,19=15,26=4/3(-5);
 2/9=2000/2;
 6/7=2,8=2,9=2,10=2,19=2,28=1,87=12/1;
 99/9=1/99;
 Leave Link    1 at Sat Aug 10 23:34:19 2019, MaxMem=  1835008000 cpu:               0.8 elap:               0.1
 (Enter /opt/g16/l101.exe)
 ----
 name
 ----
 Symbolic Z-matrix:
 Charge =  0 Multiplicity = 1
 O                     0.60405  -0.38691   0.24174 
 O                    -0.59123   0.38781   0.2703 
 H                     1.17936   0.17623  -0.28602 
 H                    -1.19218  -0.17714  -0.22601 
 
 The following ModRedundant input section has been read:
 D       3       1       2       4 S  36 10.000                                
 
 ITRead=  0  0  0  0
 MicOpt= -1 -1 -1 -1
 NAtoms=      4 NQM=        4 NQMF=       0 NMMI=      0 NMMIF=      0
                NMic=       0 NMicF=      0.
                    Isotopes and Nuclear Properties:
 (Nuclear quadrupole moments (NQMom) in fm**2, nuclear magnetic moments (NMagM)
  in nuclear magnetons)

  Atom         1           2           3           4
 IAtWgt=          16          16           1           1
 AtmWgt=  15.9949146  15.9949146   1.0078250   1.0078250
 NucSpn=           0           0           1           1
 AtZEff=  -0.0000000  -0.0000000  -0.0000000  -0.0000000
 NQMom=    0.0000000   0.0000000   0.0000000   0.0000000
 NMagM=    0.0000000   0.0000000   2.7928460   2.7928460
 AtZNuc=   8.0000000   8.0000000   1.0000000   1.0000000
 Leave Link  101 at Sat Aug 10 23:34:19 2019, MaxMem=  1835008000 cpu:               4.6 elap:               0.6
 (Enter /opt/g16/l103.exe)

 GradGradGradGradGradGradGradGradGradGradGradGradGradGradGradGradGradGrad
 Berny optimization.
 Initialization pass.
                           ----------------------------
                           !    Initial Parameters    !
                           ! (Angstroms and Degrees)  !
 --------------------------                            --------------------------
 ! Name  Definition              Value          Derivative Info.                !
 --------------------------------------------------------------------------------
 ! R1    R(1,2)                  1.4247         calculate D2E/DX2 analytically  !
 ! R2    R(1,3)                  0.9626         calculate D2E/DX2 analytically  !
 ! R3    R(2,4)                  0.9626         calculate D2E/DX2 analytically  !
 ! A1    A(2,1,3)              101.203          calculate D2E/DX2 analytically  !
 ! A2    A(1,2,4)              101.203          calculate D2E/DX2 analytically  !
 ! D1    D(3,1,2,4)            114.3023         Scan                            !
 --------------------------------------------------------------------------------
 Trust Radius=5.00D-02 FncErr=1.00D-07 GrdErr=1.00D-06 EigMax=2.50D+02 EigMin=1.00D-04
 Number of optimizations in scan=  37
 Number of steps in this run=     20 maximum allowed number of steps=    100.
 GradGradGradGradGradGradGradGradGradGradGradGradGradGradGradGradGradGrad

 Leave Link  103 at Sat Aug 10 23:34:19 2019, MaxMem=  1835008000 cpu:               0.1 elap:               0.0
 (Enter /opt/g16/l202.exe)
                          Input orientation:                          
 ---------------------------------------------------------------------
 Center     Atomic      Atomic             Coordinates (Angstroms)
 Number     Number       Type             X           Y           Z
 ---------------------------------------------------------------------
      1          8           0        0.604051   -0.386909    0.241737
      2          8           0       -0.591228    0.387814    0.270299
      3          1           0        1.179355    0.176229   -0.286023
      4          1           0       -1.192177   -0.177135   -0.226013
 ---------------------------------------------------------------------
                    Distance matrix (angstroms):
                    1          2          3          4
     1  O    0.000000
     2  O    1.424677   0.000000
     3  H    0.962616   1.867947   0.000000
     4  H    1.867948   0.962618   2.398464   0.000000
 Stoichiometry    H2O2
 Framework group  C1[X(H2O2)]
 Deg. of freedom     6
 Full point group                 C1      NOp   1
 Largest Abelian subgroup         C1      NOp   1
 Largest concise Abelian subgroup C1      NOp   1
                         Standard orientation:                         
 ---------------------------------------------------------------------
 Center     Atomic      Atomic             Coordinates (Angstroms)
 Number     Number       Type             X           Y           Z
 ---------------------------------------------------------------------
      1          8           0        0.702971    0.115142   -0.056911
      2          8           0       -0.702971   -0.115142   -0.056911
      3          1           0        1.015761   -0.637483    0.455287
      4          1           0       -1.015761    0.637486    0.455286
 ---------------------------------------------------------------------
 Rotational constants (GHZ):         307.7420861          27.3414593          26.4163592
 Leave Link  202 at Sat Aug 10 23:34:19 2019, MaxMem=  1835008000 cpu:               0.0 elap:               0.0
 (Enter /opt/g16/l301.exe)
 Standard basis: def2TZVP (5D, 7F)
 Ernie: Thresh=  0.10000D-02 Tol=  0.10000D-05 Strict=F.
 There are    84 symmetry adapted cartesian basis functions of A   symmetry.
 There are    74 symmetry adapted basis functions of A   symmetry.
    74 basis functions,   118 primitive gaussians,    84 cartesian basis functions
     9 alpha electrons        9 beta electrons
       nuclear repulsion energy        37.3209206201 Hartrees.
 IExCor= 4639 DFT=T Ex+Corr=wB97XD ExCW=0 ScaHFX=  1.000000
 ScaDFX=  1.000000  1.000000  1.000000  1.000000 ScalE2=  1.000000  1.000000
 IRadAn=      5 IRanWt=     -1 IRanGd=            0 ICorTp=0 IEmpDi=121
 HFx  wShort=  0.000000 wLong=  0.200000 cFull=  0.222036 cShort=  0.000000 cLong=  0.777964
 DFx  wShort=  0.000000 wLong=  0.200000 cFull=  0.000000 cShort=  0.000000 cLong=  1.000000
 NAtoms=    4 NActive=    4 NUniq=    4 SFac= 1.00D+00 NAtFMM=   60 NAOKFM=F Big=F
 Integral buffers will be    131072 words long.
 Raffenetti 2 integral format.
 Two-electron integral symmetry is turned on.
 R6Disp:  Grimme-D2 Dispersion energy=       -0.0002309347 Hartrees.
 Nuclear repulsion after empirical dispersion term =       37.3206896854 Hartrees.
 Leave Link  301 at Sat Aug 10 23:34:19 2019, MaxMem=  1835008000 cpu:               0.4 elap:               0.1
 (Enter /opt/g16/l302.exe)
 NPDir=0 NMtPBC=     1 NCelOv=     1 NCel=       1 NClECP=     1 NCelD=      1
         NCelK=      1 NCelE2=     1 NClLst=     1 CellRange=     0.0.
 One-electron integrals computed using PRISM.
 One-electron integral symmetry used in STVInt
   1 Symmetry operations used in ECPInt.
 ECPInt:  NShTT=     465 NPrTT=    1428 LenC2=     465 LenP2D=    1306.
 LDataN:  DoStor=T MaxTD1= 6 Len=  172
 NBasis=    74 RedAO= T EigKep=  5.14D-03  NBF=    74
 NBsUse=    74 1.00D-06 EigRej= -1.00D+00 NBFU=    74
 Precomputing XC quadrature grid using
 IXCGrd= 4 IRadAn=           5 IRanWt=          -1 IRanGd=           0 AccXCQ= 1.00D-12.
 Generated NRdTot=       0 NPtTot=           0 NUsed=           0 NTot=          32
 NSgBfM=    84    84    84    84    84 MxSgAt=     4 MxSgA2=     4.
 Leave Link  302 at Sat Aug 10 23:34:20 2019, MaxMem=  1835008000 cpu:               2.3 elap:               0.3
 (Enter /opt/g16/l303.exe)
 DipDrv:  MaxL=1.
 Leave Link  303 at Sat Aug 10 23:34:20 2019, MaxMem=  1835008000 cpu:               0.3 elap:               0.0
 (Enter /opt/g16/l401.exe)
 ExpMin= 1.03D-01 ExpMax= 2.70D+04 ExpMxC= 9.22D+02 IAcc=3 IRadAn=         5 AccDes= 0.00D+00
 Harris functional with IExCor= 4639 and IRadAn=       5 diagonalized for initial guess.
 HarFok:  IExCor= 4639 AccDes= 0.00D+00 IRadAn=         5 IDoV= 1 UseB2=F ITyADJ=14
 ICtDFT=  3500011 ScaDFX=  1.000000  1.000000  1.000000  1.000000
 FoFCou: FMM=F IPFlag=           0 FMFlag=      100000 FMFlg1=           0
         NFxFlg=           0 DoJE=T BraDBF=F KetDBF=T FulRan=T
         wScrn=  0.000000 ICntrl=       500 IOpCl=  0 I1Cent=   200000004 NGrid=           0
         NMat0=    1 NMatS0=      1 NMatT0=    0 NMatD0=    1 NMtDS0=    0 NMtDT0=    0
 Petite list used in FoFCou.
 Harris En= -146.286956925774    
 JPrj=0 DoOrth=F DoCkMO=T.
 Mixing orbitals, IMix= 1 IMixAn=  0 NRI=1 NE=    9 Coef=  7.07106781D-01  7.07106781D-01
 Leave Link  401 at Sat Aug 10 23:34:20 2019, MaxMem=  1835008000 cpu:               4.8 elap:               0.6
 (Enter /opt/g16/l502.exe)
 Keep R1 ints in memory in canonical form, NReq=14983084.
 FoFCou: FMM=F IPFlag=           0 FMFlag=           0 FMFlg1=           0
         NFxFlg=           0 DoJE=F BraDBF=F KetDBF=F FulRan=T
         wScrn=  0.000000 ICntrl=       600 IOpCl=  0 I1Cent=           0 NGrid=           0
         NMat0=    1 NMatS0=   2775 NMatT0=    0 NMatD0=    1 NMtDS0=    0 NMtDT0=    0
 Symmetry not used in FoFCou.
 Two-electron integral symmetry not used.
 Closed shell SCF:
 Using DIIS extrapolation, IDIIS=  1040.
 NGot=  1835008000 LenX=  1827288934 LenY=  1827281437
 Requested convergence on RMS density matrix=1.00D-08 within  32 cycles.
 Requested convergence on MAX density matrix=1.00D-06.
 Requested convergence on             energy=1.00D-06.
 No special actions if energy rises.
 Integral accuracy reduced to 1.0D-05 until final iterations.

 Cycle   1  Pass 0  IDiag  1:
 E= -151.087762549743    
 DIIS: error= 7.57D-02 at cycle   1 NSaved=   1.
 NSaved= 1 IEnMin= 1 EnMin= -151.087762549743     IErMin= 1 ErrMin= 7.57D-02
 ErrMax= 7.57D-02  0.00D+00 EMaxC= 1.00D-01 BMatC= 5.63D-01 BMatP= 5.63D-01
 IDIUse=3 WtCom= 2.43D-01 WtEn= 7.57D-01
 Coeff-Com:  0.100D+01
 Coeff-En:   0.100D+01
 Coeff:      0.100D+01
 Gap=     0.188 Goal=   None    Shift=    0.000
 GapD=    0.188 DampG=1.000 DampE=0.500 DampFc=0.5000 IDamp=-1.
 Damping current iteration by 5.00D-01
 RMSDP=2.74D-02 MaxDP=6.26D-01              OVMax= 5.88D-01

 Cycle   2  Pass 0  IDiag  1:
 E= -151.298767901363     Delta-E=       -0.211005351620 Rises=F Damp=T
 DIIS: error= 3.04D-02 at cycle   2 NSaved=   2.
 NSaved= 2 IEnMin= 2 EnMin= -151.298767901363     IErMin= 2 ErrMin= 3.04D-02
 ErrMax= 3.04D-02  0.00D+00 EMaxC= 1.00D-01 BMatC= 6.91D-02 BMatP= 5.63D-01
 IDIUse=3 WtCom= 6.96D-01 WtEn= 3.04D-01
 Coeff-Com: -0.116D+00 0.112D+01
 Coeff-En:   0.000D+00 0.100D+01
 Coeff:     -0.805D-01 0.108D+01
 Gap=     0.460 Goal=   None    Shift=    0.000
 RMSDP=1.33D-02 MaxDP=3.04D-01 DE=-2.11D-01 OVMax= 1.04D-01

 Cycle   3  Pass 0  IDiag  1:
 E= -151.550415863222     Delta-E=       -0.251647961859 Rises=F Damp=F
 DIIS: error= 6.69D-03 at cycle   3 NSaved=   3.
 NSaved= 3 IEnMin= 3 EnMin= -151.550415863222     IErMin= 3 ErrMin= 6.69D-03
 ErrMax= 6.69D-03  0.00D+00 EMaxC= 1.00D-01 BMatC= 3.65D-03 BMatP= 6.91D-02
 IDIUse=3 WtCom= 9.33D-01 WtEn= 6.69D-02
 Coeff-Com: -0.308D-01 0.360D-01 0.995D+00
 Coeff-En:   0.000D+00 0.000D+00 0.100D+01
 Coeff:     -0.288D-01 0.335D-01 0.995D+00
 Gap=     0.461 Goal=   None    Shift=    0.000
 RMSDP=2.70D-03 MaxDP=3.62D-02 DE=-2.52D-01 OVMax= 9.73D-02

 Cycle   4  Pass 0  IDiag  1:
 E= -151.563608701768     Delta-E=       -0.013192838546 Rises=F Damp=F
 DIIS: error= 3.26D-03 at cycle   4 NSaved=   4.
 NSaved= 4 IEnMin= 4 EnMin= -151.563608701768     IErMin= 4 ErrMin= 3.26D-03
 ErrMax= 3.26D-03  0.00D+00 EMaxC= 1.00D-01 BMatC= 1.63D-03 BMatP= 3.65D-03
 IDIUse=3 WtCom= 9.67D-01 WtEn= 3.26D-02
 Coeff-Com: -0.203D-01 0.157D-01 0.302D+00 0.703D+00
 Coeff-En:   0.000D+00 0.000D+00 0.000D+00 0.100D+01
 Coeff:     -0.197D-01 0.152D-01 0.292D+00 0.712D+00
 Gap=     0.472 Goal=   None    Shift=    0.000
 RMSDP=7.88D-04 MaxDP=1.05D-02 DE=-1.32D-02 OVMax= 2.88D-02

 Cycle   5  Pass 0  IDiag  1:
 E= -151.565724239352     Delta-E=       -0.002115537585 Rises=F Damp=F
 DIIS: error= 2.41D-03 at cycle   5 NSaved=   5.
 NSaved= 5 IEnMin= 5 EnMin= -151.565724239352     IErMin= 5 ErrMin= 2.41D-03
 ErrMax= 2.41D-03  0.00D+00 EMaxC= 1.00D-01 BMatC= 7.16D-04 BMatP= 1.63D-03
 IDIUse=3 WtCom= 9.76D-01 WtEn= 2.41D-02
 Coeff-Com: -0.829D-02 0.167D-01-0.255D+00 0.408D+00 0.838D+00
 Coeff-En:   0.000D+00 0.000D+00 0.000D+00 0.000D+00 0.100D+01
 Coeff:     -0.809D-02 0.163D-01-0.249D+00 0.399D+00 0.842D+00
 Gap=     0.472 Goal=   None    Shift=    0.000
 RMSDP=7.45D-04 MaxDP=1.08D-02 DE=-2.12D-03 OVMax= 3.03D-02

 Cycle   6  Pass 0  IDiag  1:
 E= -151.566902854435     Delta-E=       -0.001178615083 Rises=F Damp=F
 DIIS: error= 3.71D-04 at cycle   6 NSaved=   6.
 NSaved= 6 IEnMin= 6 EnMin= -151.566902854435     IErMin= 6 ErrMin= 3.71D-04
 ErrMax= 3.71D-04  0.00D+00 EMaxC= 1.00D-01 BMatC= 1.50D-05 BMatP= 7.16D-04
 IDIUse=3 WtCom= 9.96D-01 WtEn= 3.71D-03
 Coeff-Com:  0.166D-02-0.526D-02 0.700D-02-0.112D+00-0.497D-01 0.116D+01
 Coeff-En:   0.000D+00 0.000D+00 0.000D+00 0.000D+00 0.000D+00 0.100D+01
 Coeff:      0.165D-02-0.524D-02 0.697D-02-0.111D+00-0.495D-01 0.116D+01
 Gap=     0.472 Goal=   None    Shift=    0.000
 RMSDP=1.92D-04 MaxDP=2.97D-03 DE=-1.18D-03 OVMax= 8.13D-03

 Cycle   7  Pass 0  IDiag  1:
 E= -151.566952539985     Delta-E=       -0.000049685550 Rises=F Damp=F
 DIIS: error= 3.78D-05 at cycle   7 NSaved=   7.
 NSaved= 7 IEnMin= 7 EnMin= -151.566952539985     IErMin= 7 ErrMin= 3.78D-05
 ErrMax= 3.78D-05  0.00D+00 EMaxC= 1.00D-01 BMatC= 2.00D-07 BMatP= 1.50D-05
 IDIUse=1 WtCom= 1.00D+00 WtEn= 0.00D+00
 Coeff-Com:  0.198D-03-0.734D-03 0.111D-01-0.156D-01-0.298D-01 0.136D-01
 Coeff-Com:  0.102D+01
 Coeff:      0.198D-03-0.734D-03 0.111D-01-0.156D-01-0.298D-01 0.136D-01
 Coeff:      0.102D+01
 Gap=     0.471 Goal=   None    Shift=    0.000
 RMSDP=1.19D-05 MaxDP=1.60D-04 DE=-4.97D-05 OVMax= 4.30D-04

 Cycle   8  Pass 0  IDiag  1:
 E= -151.566952957083     Delta-E=       -0.000000417098 Rises=F Damp=F
 DIIS: error= 9.15D-06 at cycle   8 NSaved=   8.
 NSaved= 8 IEnMin= 8 EnMin= -151.566952957083     IErMin= 8 ErrMin= 9.15D-06
 ErrMax= 9.15D-06  0.00D+00 EMaxC= 1.00D-01 BMatC= 7.09D-09 BMatP= 2.00D-07
 IDIUse=1 WtCom= 1.00D+00 WtEn= 0.00D+00
 Coeff-Com: -0.260D-05 0.720D-04-0.861D-03 0.309D-02 0.235D-02-0.242D-01
 Coeff-Com: -0.224D-01 0.104D+01
 Coeff:     -0.260D-05 0.720D-04-0.861D-03 0.309D-02 0.235D-02-0.242D-01
 Coeff:     -0.224D-01 0.104D+01
 Gap=     0.471 Goal=   None    Shift=    0.000
 RMSDP=2.21D-06 MaxDP=2.31D-05 DE=-4.17D-07 OVMax= 8.17D-05

 Initial convergence to 1.0D-05 achieved.  Increase integral accuracy.
 Cycle   9  Pass 1  IDiag  1:
 E= -151.566948067908     Delta-E=        0.000004889175 Rises=F Damp=F
 DIIS: error= 2.22D-05 at cycle   1 NSaved=   1.
 NSaved= 1 IEnMin= 1 EnMin= -151.566948067908     IErMin= 1 ErrMin= 2.22D-05
 ErrMax= 2.22D-05  0.00D+00 EMaxC= 1.00D-01 BMatC= 2.38D-08 BMatP= 2.38D-08
 IDIUse=1 WtCom= 1.00D+00 WtEn= 0.00D+00
 Coeff-Com:  0.100D+01
 Coeff:      0.100D+01
 Gap=     0.471 Goal=   None    Shift=    0.000
 RMSDP=2.21D-06 MaxDP=2.31D-05 DE= 4.89D-06 OVMax= 2.22D-05

 Cycle  10  Pass 1  IDiag  1:
 E= -151.566948078558     Delta-E=       -0.000000010649 Rises=F Damp=F
 DIIS: error= 1.47D-06 at cycle   2 NSaved=   2.
 NSaved= 2 IEnMin= 2 EnMin= -151.566948078558     IErMin= 2 ErrMin= 1.47D-06
 ErrMax= 1.47D-06  0.00D+00 EMaxC= 1.00D-01 BMatC= 2.61D-10 BMatP= 2.38D-08
 IDIUse=1 WtCom= 1.00D+00 WtEn= 0.00D+00
 Coeff-Com: -0.390D-01 0.104D+01
 Coeff:     -0.390D-01 0.104D+01
 Gap=     0.471 Goal=   None    Shift=    0.000
 RMSDP=2.72D-07 MaxDP=3.33D-06 DE=-1.06D-08 OVMax= 1.04D-05

 Cycle  11  Pass 1  IDiag  1:
 E= -151.566948078873     Delta-E=       -0.000000000315 Rises=F Damp=F
 DIIS: error= 6.97D-07 at cycle   3 NSaved=   3.
 NSaved= 3 IEnMin= 3 EnMin= -151.566948078873     IErMin= 3 ErrMin= 6.97D-07
 ErrMax= 6.97D-07  0.00D+00 EMaxC= 1.00D-01 BMatC= 8.47D-11 BMatP= 2.61D-10
 IDIUse=1 WtCom= 1.00D+00 WtEn= 0.00D+00
 Coeff-Com: -0.222D-01 0.355D+00 0.667D+00
 Coeff:     -0.222D-01 0.355D+00 0.667D+00
 Gap=     0.471 Goal=   None    Shift=    0.000
 RMSDP=8.83D-08 MaxDP=1.30D-06 DE=-3.15D-10 OVMax= 3.06D-06

 Cycle  12  Pass 1  IDiag  1:
 E= -151.566948078940     Delta-E=       -0.000000000068 Rises=F Damp=F
 DIIS: error= 3.38D-07 at cycle   4 NSaved=   4.
 NSaved= 4 IEnMin= 4 EnMin= -151.566948078940     IErMin= 4 ErrMin= 3.38D-07
 ErrMax= 3.38D-07  0.00D+00 EMaxC= 1.00D-01 BMatC= 1.30D-11 BMatP= 8.47D-11
 IDIUse=1 WtCom= 1.00D+00 WtEn= 0.00D+00
 Coeff-Com: -0.114D-02-0.342D-01 0.217D+00 0.818D+00
 Coeff:     -0.114D-02-0.342D-01 0.217D+00 0.818D+00
 Gap=     0.471 Goal=   None    Shift=    0.000
 RMSDP=5.46D-08 MaxDP=5.68D-07 DE=-6.77D-11 OVMax= 1.94D-06

 Cycle  13  Pass 1  IDiag  1:
 E= -151.566948078955     Delta-E=       -0.000000000015 Rises=F Damp=F
 DIIS: error= 2.00D-07 at cycle   5 NSaved=   5.
 NSaved= 5 IEnMin= 5 EnMin= -151.566948078955     IErMin= 5 ErrMin= 2.00D-07
 ErrMax= 2.00D-07  0.00D+00 EMaxC= 1.00D-01 BMatC= 2.98D-12 BMatP= 1.30D-11
 IDIUse=1 WtCom= 1.00D+00 WtEn= 0.00D+00
 Coeff-Com:  0.322D-02-0.745D-01-0.246D-01 0.355D+00 0.741D+00
 Coeff:      0.322D-02-0.745D-01-0.246D-01 0.355D+00 0.741D+00
 Gap=     0.471 Goal=   None    Shift=    0.000
 RMSDP=2.80D-08 MaxDP=2.55D-07 DE=-1.49D-11 OVMax= 1.20D-06

 Cycle  14  Pass 1  IDiag  1:
 E= -151.566948078959     Delta-E=       -0.000000000004 Rises=F Damp=F
 DIIS: error= 6.46D-08 at cycle   6 NSaved=   6.
 NSaved= 6 IEnMin= 6 EnMin= -151.566948078959     IErMin= 6 ErrMin= 6.46D-08
 ErrMax= 6.46D-08  0.00D+00 EMaxC= 1.00D-01 BMatC= 5.64D-13 BMatP= 2.98D-12
 IDIUse=1 WtCom= 1.00D+00 WtEn= 0.00D+00
 Coeff-Com:  0.131D-02-0.209D-01-0.552D-01-0.847D-02 0.347D+00 0.737D+00
 Coeff:      0.131D-02-0.209D-01-0.552D-01-0.847D-02 0.347D+00 0.737D+00
 Gap=     0.471 Goal=   None    Shift=    0.000
 RMSDP=1.10D-08 MaxDP=9.50D-08 DE=-3.69D-12 OVMax= 4.08D-07

 Cycle  15  Pass 1  IDiag  1:
 E= -151.566948078960     Delta-E=       -0.000000000001 Rises=F Damp=F
 DIIS: error= 1.24D-08 at cycle   7 NSaved=   7.
 NSaved= 7 IEnMin= 7 EnMin= -151.566948078960     IErMin= 7 ErrMin= 1.24D-08
 ErrMax= 1.24D-08  0.00D+00 EMaxC= 1.00D-01 BMatC= 1.48D-14 BMatP= 5.64D-13
 IDIUse=1 WtCom= 1.00D+00 WtEn= 0.00D+00
 Coeff-Com: -0.351D-03 0.856D-02-0.438D-02-0.483D-01-0.464D-01 0.248D-01
 Coeff-Com:  0.107D+01
 Coeff:     -0.351D-03 0.856D-02-0.438D-02-0.483D-01-0.464D-01 0.248D-01
 Coeff:      0.107D+01
 Gap=     0.471 Goal=   None    Shift=    0.000
 RMSDP=4.04D-09 MaxDP=4.45D-08 DE=-1.19D-12 OVMax= 1.46D-07

 SCF Done:  E(RwB97XD) =  -151.566948079     A.U. after   15 cycles
            NFock= 15  Conv=0.40D-08     -V/T= 2.0035
 KE= 1.510386757306D+02 PE=-4.335347574980D+02 EE= 9.360844400304D+01
 Leave Link  502 at Sat Aug 10 23:34:24 2019, MaxMem=  1835008000 cpu:              25.9 elap:               3.3
 (Enter /opt/g16/l508.exe)
 QCSCF skips out because SCF is already converged.
 Leave Link  508 at Sat Aug 10 23:34:24 2019, MaxMem=  1835008000 cpu:               0.0 elap:               0.0
 (Enter /opt/g16/l801.exe)
 DoSCS=F DFT=T ScalE2(SS,OS)=  1.000000  1.000000
 Range of M.O.s used for correlation:     1    74
 NBasis=    74 NAE=     9 NBE=     9 NFC=     0 NFV=     0
 NROrb=     74 NOA=     9 NOB=     9 NVA=    65 NVB=    65
 Leave Link  801 at Sat Aug 10 23:34:24 2019, MaxMem=  1835008000 cpu:               0.2 elap:               0.0
 (Enter /opt/g16/l1101.exe)
 Using compressed storage, NAtomX=     4.
 Will process      5 centers per pass.
   1 Symmetry operations used in ECPInt.
 ECPInt:  NShTT=     465 NPrTT=    1428 LenC2=     465 LenP2D=    1306.
 LDataN:  DoStor=T MaxTD1= 7 Len=  274
 R6Disp: Adding Grimme-D2 dispersion energy 1st derivatives to the gradient.
 Leave Link 1101 at Sat Aug 10 23:34:25 2019, MaxMem=  1835008000 cpu:               6.1 elap:               0.8
 (Enter /opt/g16/l1102.exe)
 Symmetrizing basis deriv contribution to polar:
 IMax=3 JMax=2 DiffMx= 0.00D+00
 Leave Link 1102 at Sat Aug 10 23:34:25 2019, MaxMem=  1835008000 cpu:               0.3 elap:               0.0
 (Enter /opt/g16/l1110.exe)
 Forming Gx(P) for the SCF density, NAtomX=     4.
 Integral derivatives from FoFJK, PRISM(SPDF).
 Do as many integral derivatives as possible in FoFJK.
 G2DrvN: MDV=    1835007560.
 G2DrvN: will do     5 centers at a time, making    1 passes.
 Calling FoFCou, ICntrl=  3107 FMM=F I1Cent=   0 AccDes= 1.00D-12.
 FoFJK:  IHMeth= 1 ICntrl=    3107 DoSepK=T KAlg= 0 I1Cent=           0 FoldK=F
 IRaf=         1 NMat=       1 IRICut=       1 DoRegI=T DoRafI=F ISym2E= 0 IDoP0=0 IntGTp=1.
 FoFCou: FMM=F IPFlag=           0 FMFlag=      100000 FMFlg1=           0
         NFxFlg=           0 DoJE=F BraDBF=F KetDBF=F FulRan=T
         wScrn=  0.000000 ICntrl=      3507 IOpCl=  0 I1Cent=           0 NGrid=           0
         NMat0=    1 NMatS0=      1 NMatT0=    0 NMatD0=    1 NMtDS0=    0 NMtDT0=    0
 Symmetry not used in FoFCou.
 End of G2Drv F.D. properties file   721 does not exist.
 End of G2Drv F.D. properties file   722 does not exist.
 End of G2Drv F.D. properties file   788 does not exist.
 Leave Link 1110 at Sat Aug 10 23:34:29 2019, MaxMem=  1835008000 cpu:              37.0 elap:               4.6
 (Enter /opt/g16/l1002.exe)
 Minotr:  Closed shell wavefunction.
          IDoAtm=1111
          Direct CPHF calculation.
          Differentiating once with respect to nuclear coordinates.
          Requested convergence is 1.0D-08 RMS, and 1.0D-07 maximum.
          Secondary convergence is 1.0D-12 RMS, and 1.0D-12 maximum.
          NewPWx=T KeepS1=F KeepF1=F KeepIn=T MapXYZ=F SortEE=F KeepMc=T.
         1193 words used for storage of precomputed grid.
 Keep R1 ints in memory in canonical form, NReq=14958893.
 FoFCou: FMM=F IPFlag=           0 FMFlag=           0 FMFlg1=           0
         NFxFlg=           0 DoJE=F BraDBF=F KetDBF=F FulRan=T
         wScrn=  0.000000 ICntrl=       600 IOpCl=  0 I1Cent=           0 NGrid=           0
         NMat0=    1 NMatS0=   2775 NMatT0=    0 NMatD0=    1 NMtDS0=    0 NMtDT0=    0
 Symmetry not used in FoFCou.
 Two-electron integral symmetry not used.
          MDV=    1835008000 using IRadAn=       1.
          Solving linear equations simultaneously, MaxMat=       0.
          There are    15 degrees of freedom in the 1st order CPHF.  IDoFFX=6 NUNeed=     0.
      9 vectors produced by pass  0 Test12= 3.90D-15 6.67D-09 XBig12= 4.54D-02 1.20D-01.
 AX will form     9 AO Fock derivatives at one time.
      9 vectors produced by pass  1 Test12= 3.90D-15 6.67D-09 XBig12= 1.69D-03 1.62D-02.
      9 vectors produced by pass  2 Test12= 3.90D-15 6.67D-09 XBig12= 1.00D-04 3.08D-03.
      9 vectors produced by pass  3 Test12= 3.90D-15 6.67D-09 XBig12= 1.74D-06 3.63D-04.
      9 vectors produced by pass  4 Test12= 3.90D-15 6.67D-09 XBig12= 3.11D-08 4.67D-05.
      9 vectors produced by pass  5 Test12= 3.90D-15 6.67D-09 XBig12= 4.60D-10 6.67D-06.
      9 vectors produced by pass  6 Test12= 3.90D-15 6.67D-09 XBig12= 2.14D-12 4.01D-07.
      3 vectors produced by pass  7 Test12= 3.90D-15 6.67D-09 XBig12= 1.08D-14 3.21D-08.
 InvSVY:  IOpt=1 It=  1 EMax= 7.77D-16
 Solved reduced A of dimension    66 with     9 vectors.
 End of Minotr F.D. properties file   721 does not exist.
 End of Minotr F.D. properties file   722 does not exist.
 End of Minotr F.D. properties file   788 does not exist.
 Leave Link 1002 at Sat Aug 10 23:34:34 2019, MaxMem=  1835008000 cpu:              35.3 elap:               4.4
 (Enter /opt/g16/l601.exe)
 Copying SCF densities to generalized density rwf, IOpCl= 0 IROHF=0.

 **********************************************************************

            Population analysis using the SCF Density.

 **********************************************************************

 Orbital symmetries:
       Occupied  (A) (A) (A) (A) (A) (A) (A) (A) (A)
       Virtual   (A) (A) (A) (A) (A) (A) (A) (A) (A) (A) (A) (A)
                 (A) (A) (A) (A) (A) (A) (A) (A) (A) (A) (A) (A)
                 (A) (A) (A) (A) (A) (A) (A) (A) (A) (A) (A) (A)
                 (A) (A) (A) (A) (A) (A) (A) (A) (A) (A) (A) (A)
                 (A) (A) (A) (A) (A) (A) (A) (A) (A) (A) (A) (A)
                 (A) (A) (A) (A) (A)
 The electronic state is 1-A.
 Alpha  occ. eigenvalues --  -19.30972 -19.30968  -1.23649  -1.00016  -0.63256
 Alpha  occ. eigenvalues --   -0.59076  -0.51871  -0.41248  -0.37138
 Alpha virt. eigenvalues --    0.09992   0.11065   0.17031   0.46787   0.46947
 Alpha virt. eigenvalues --    0.49019   0.50068   0.54424   0.57003   0.59360
 Alpha virt. eigenvalues --    0.65122   0.70815   0.79937   1.15420   1.20857
 Alpha virt. eigenvalues --    1.32435   1.37883   1.66608   1.67319   1.79721
 Alpha virt. eigenvalues --    1.84170   1.91212   1.99610   2.10798   2.20236
 Alpha virt. eigenvalues --    2.25908   2.26737   2.35672   2.41815   2.58565
 Alpha virt. eigenvalues --    2.60771   2.69095   2.78698   2.80922   2.89829
 Alpha virt. eigenvalues --    2.93597   3.77857   3.82714   4.18072   4.82014
 Alpha virt. eigenvalues --    4.89964   4.91108   4.98917   5.12095   5.38366
 Alpha virt. eigenvalues --    5.46502   5.51265   5.53653   5.92062   5.93483
 Alpha virt. eigenvalues --    6.14016   6.23312   6.37550   6.40237   6.40750
 Alpha virt. eigenvalues --    6.45219   6.49503   6.78821   6.85934   7.08332
 Alpha virt. eigenvalues --    7.13654   7.32797   8.13663  43.25020  43.75065
          Condensed to atoms (all electrons):
               1          2          3          4
     1  O    8.047190   0.029300   0.288744  -0.030269
     2  O    0.029300   8.047190  -0.030269   0.288744
     3  H    0.288744  -0.030269   0.406289   0.000271
     4  H   -0.030269   0.288744   0.000271   0.406289
 Mulliken charges:
               1
     1  O   -0.334964
     2  O   -0.334965
     3  H    0.334964
     4  H    0.334965
 Sum of Mulliken charges =  -0.00000
 Mulliken charges with hydrogens summed into heavy atoms:
               1
     1  O   -0.000000
     2  O    0.000000
 APT charges:
               1
     1  O   -0.542875
     2  O   -0.542875
     3  H    0.542875
     4  H    0.542875
 Sum of APT charges =  -0.00000
 APT charges with hydrogens summed into heavy atoms:
               1
     1  O    0.000000
     2  O   -0.000000
 Electronic spatial extent (au):  <R**2>=             65.1281
 Charge=             -0.0000 electrons
 Dipole moment (field-independent basis, Debye):
    X=             -0.0000    Y=              0.0000    Z=              1.8596  Tot=              1.8596
 Quadrupole moment (field-independent basis, Debye-Ang):
   XX=            -10.3046   YY=            -10.5428   ZZ=            -11.7001
   XY=             -3.1820   XZ=              0.0000   YZ=             -0.0000
 Traceless Quadrupole moment (field-independent basis, Debye-Ang):
   XX=              0.5446   YY=              0.3064   ZZ=             -0.8509
   XY=             -3.1820   XZ=              0.0000   YZ=             -0.0000
 Octapole moment (field-independent basis, Debye-Ang**2):
  XXX=              0.0000  YYY=              0.0000  ZZZ=              1.2477  XYY=             -0.0000
  XXY=              0.0000  XXZ=              2.5445  XZZ=              0.0000  YZZ=             -0.0000
  YYZ=              0.9305  XYZ=             -1.5187
 Hexadecapole moment (field-independent basis, Debye-Ang**3):
 XXXX=            -41.8260 YYYY=            -11.1777 ZZZZ=            -10.8076 XXXY=             -4.2937
 XXXZ=              0.0000 YYYX=             -2.8092 YYYZ=              0.0000 ZZZX=              0.0000
 ZZZY=             -0.0000 XXYY=             -8.5281 XXZZ=             -9.4920 YYZZ=             -3.3837
 XXYZ=             -0.0000 YYXZ=             -0.0000 ZZXY=             -1.1359
 N-N= 3.732068968540D+01 E-N=-4.335347575527D+02  KE= 1.510386757306D+02
  Exact polarizability:   0.000   0.000   0.000   0.000   0.000   0.000
 Approx polarizability:  16.472  -0.499  10.592  -0.000   0.000   8.994
 No NMR shielding tensors so no spin-rotation constants.
 Leave Link  601 at Sat Aug 10 23:34:34 2019, MaxMem=  1835008000 cpu:               2.0 elap:               0.3
 (Enter /opt/g16/l701.exe)
 ... and contract with generalized density number  0.
 Compute integral second derivatives.
 R6Disp: Adding Grimme-D2 dispersion energy 2nd derivatives to the Hessian.
   1 Symmetry operations used in ECPInt.
 ECPInt:  NShTT=     465 NPrTT=    1428 LenC2=     465 LenP2D=    1306.
 LDataN:  DoStor=T MaxTD1= 8 Len=  415
 Leave Link  701 at Sat Aug 10 23:34:35 2019, MaxMem=  1835008000 cpu:               6.9 elap:               0.9
 (Enter /opt/g16/l702.exe)
 L702 exits ... SP integral derivatives will be done elsewhere.
 Leave Link  702 at Sat Aug 10 23:34:35 2019, MaxMem=  1835008000 cpu:               0.3 elap:               0.0
 (Enter /opt/g16/l703.exe)
 Integral derivatives from FoFJK, PRISM(SPDF).
 Compute integral second derivatives, UseDBF=F ICtDFT=           0.
 Calling FoFJK, ICntrl=    100147 FMM=F ISym2X=0 I1Cent= 0 IOpClX= 0 NMat=1 NMatS=1 NMatT=0.
 FoFJK:  IHMeth= 1 ICntrl=  100147 DoSepK=T KAlg= 0 I1Cent=           0 FoldK=F
 IRaf=         1 NMat=       1 IRICut=       1 DoRegI=T DoRafI=F ISym2E= 0 IDoP0=0 IntGTp=1.
 FoFCou: FMM=F IPFlag=           0 FMFlag=      100000 FMFlg1=         800
         NFxFlg=           0 DoJE=F BraDBF=F KetDBF=F FulRan=T
         wScrn=  0.000000 ICntrl=    100547 IOpCl=  0 I1Cent=           0 NGrid=           0
         NMat0=    1 NMatS0=      1 NMatT0=    0 NMatD0=    1 NMtDS0=    0 NMtDT0=    0
 Symmetry not used in FoFCou.
 Leave Link  703 at Sat Aug 10 23:34:47 2019, MaxMem=  1835008000 cpu:              96.4 elap:              12.1
 (Enter /opt/g16/l716.exe)
 Dipole        =-3.49306090D-07 1.79500812D-06 7.31609545D-01
 Polarizability= 0.00000000D+00 0.00000000D+00 0.00000000D+00
                 0.00000000D+00 0.00000000D+00 0.00000000D+00
 ***** Axes restored to original set *****
 -------------------------------------------------------------------
 Center     Atomic                   Forces (Hartrees/Bohr)
 Number     Number              X              Y              Z
 -------------------------------------------------------------------
      1        8          -0.000004995    0.000006780    0.000000965
      2        8           0.000004082   -0.000007686   -0.000000057
      3        1           0.000000926   -0.000004063   -0.000000866
      4        1          -0.000000013    0.000004968   -0.000000041
 -------------------------------------------------------------------
 Cartesian Forces:  Max     0.000007686 RMS     0.000003983
 Force constants in Cartesian coordinates: 
                1             2             3             4             5 
      1  0.454604D+00
      2  0.562357D-01  0.324996D+00
      3 -0.161183D+00 -0.190897D+00  0.182726D+00
      4 -0.232929D+00  0.967855D-01  0.264256D-01  0.470024D+00
      5  0.960852D-01 -0.114649D+00 -0.147339D-01  0.662484D-01  0.326332D+00
      6 -0.161687D-01  0.102341D-01 -0.214468D-01  0.146533D+00  0.187293D+00
      7 -0.186951D+00 -0.139814D+00  0.146927D+00 -0.343036D-01 -0.133344D-01
      8 -0.190500D+00 -0.219845D+00  0.190788D+00  0.373711D-01  0.943005D-02
      9  0.171808D+00  0.176885D+00 -0.162942D+00 -0.387300D-02 -0.314186D-02
     10 -0.347239D-01 -0.132073D-01 -0.121694D-01 -0.202792D+00 -0.148999D+00
     11  0.381791D-01  0.949816D-02  0.148434D-01 -0.200405D+00 -0.221113D+00
     12  0.554351D-02  0.377841D-02  0.166283D-02 -0.169085D+00 -0.169417D+00
                6             7             8             9            10 
      6  0.165966D+00
      7  0.140204D-01  0.226810D+00
      8 -0.167635D-01  0.151431D+00  0.212434D+00
      9  0.131068D-02 -0.164610D+00 -0.173847D+00  0.160327D+00
     10 -0.144384D+00 -0.555546D-02  0.169742D-02 -0.332514D-02  0.243071D+00
     11 -0.180763D+00  0.171682D-02 -0.201858D-02  0.103789D-03  0.160509D+00
     12 -0.145830D+00  0.366288D-02 -0.177527D-03  0.130474D-02  0.159879D+00
               11            12 
     11  0.213633D+00
     12  0.165816D+00  0.142863D+00
 FormGI is forming the generalized inverse of G from B-inverse, IUseBI=4.
 Force constants in internal coordinates: 
                1             2             3             4             5 
      1  0.357568D+00
      2 -0.302243D-02  0.527182D+00
      3 -0.302234D-02 -0.271592D-03  0.527176D+00
      4  0.730003D-01 -0.277706D-02  0.710596D-03  0.229710D+00
      5  0.730003D-01  0.710588D-03 -0.277709D-02  0.203618D-01  0.229710D+00
      6 -0.164219D-02  0.253128D-02  0.253129D-02  0.917133D-02  0.917135D-02
                6 
      6  0.953769D-02
 Leave Link  716 at Sat Aug 10 23:34:47 2019, MaxMem=  1835008000 cpu:               0.3 elap:               0.0
 (Enter /opt/g16/l103.exe)

 GradGradGradGradGradGradGradGradGradGradGradGradGradGradGradGradGradGrad
 Berny optimization.
 Red2BG is reusing G-inverse.
 Internal  Forces:  Max     0.000006067 RMS     0.000003522
 Search for a local minimum.
 Step number   1 out of a maximum of   20 on scan point     1 out of    37
 All quantities printed in internal units (Hartrees-Bohrs-Radians)
 RMS Force = .36507D-05 SwitMx=.10000D-02 MixMth= 2
 Mixed Optimization -- En-DIIS/RFO-DIIS
 Second derivative matrix not updated -- analytic derivatives used.
 The second derivative matrix:
                          R1        R2        R3        A1        A2
           R1           0.35757
           R2          -0.00302   0.52718
           R3          -0.00302  -0.00027   0.52718
           A1           0.07300  -0.00278   0.00071   0.22971
           A2           0.07300   0.00071  -0.00278   0.02036   0.22971
           D1          -0.00164   0.00253   0.00253   0.00917   0.00917
                          D1
           D1           0.00954
 ITU=  0
     Eigenvalues ---    0.18743   0.20931   0.42000   0.52712   0.52749
     Eigenvalues --- 1000.00000
 RFO step:  Lambda= 0.00000000D+00 EMin= 1.87427830D-01
 Linear search not attempted -- first point.
 Iteration  1 RMS(Cart)=  0.00001301 RMS(Int)=  0.00000000
 Iteration  2 RMS(Cart)=  0.00000000 RMS(Int)=  0.00000000
 Iteration  1 RMS(Cart)=  0.00000000 RMS(Int)=  0.00000000
 ITry= 1 IFail=0 DXMaxC= 1.60D-05 DCOld= 1.00D+10 DXMaxT= 5.00D-02 DXLimC= 3.00D+00 Rises=F
 Variable       Old X    -DE/DX   Delta X   Delta X   Delta X     New X
                                 (Linear)    (Quad)   (Total)
    R1        2.69225  -0.00001   0.00000  -0.00003  -0.00003   2.69222
    R2        1.81908  -0.00000   0.00000  -0.00000  -0.00000   1.81908
    R3        1.81908  -0.00000   0.00000  -0.00000  -0.00000   1.81908
    A1        1.76633   0.00000   0.00000   0.00002   0.00002   1.76635
    A2        1.76633   0.00000   0.00000   0.00002   0.00002   1.76635
    D1        1.99495  -0.00000   0.00000   0.00000   0.00000   1.99495
         Item               Value     Threshold  Converged?
 Maximum Force            0.000006     0.000450     YES
 RMS     Force            0.000004     0.000300     YES
 Maximum Displacement     0.000016     0.001800     YES
 RMS     Displacement     0.000013     0.001200     YES
 Predicted change in Energy=-1.608024D-10
 Optimization completed.
    -- Stationary point found.
                           ----------------------------
                           !   Optimized Parameters   !
                           ! (Angstroms and Degrees)  !
 --------------------------                            --------------------------
 ! Name  Definition              Value          Derivative Info.                !
 --------------------------------------------------------------------------------
 ! R1    R(1,2)                  1.4247         -DE/DX =    0.0                 !
 ! R2    R(1,3)                  0.9626         -DE/DX =    0.0                 !
 ! R3    R(2,4)                  0.9626         -DE/DX =    0.0                 !
 ! A1    A(2,1,3)              101.203          -DE/DX =    0.0                 !
 ! A2    A(1,2,4)              101.203          -DE/DX =    0.0                 !
 ! D1    D(3,1,2,4)            114.3023         -DE/DX =    0.0                 !
 --------------------------------------------------------------------------------
 Lowest energy point so far.  Saving SCF results.
 Iteration  1 RMS(Cart)=  0.06503635 RMS(Int)=  0.00392493
 Iteration  2 RMS(Cart)=  0.00279984 RMS(Int)=  0.00000187
 Iteration  3 RMS(Cart)=  0.00000235 RMS(Int)=  0.00000000
 Iteration  4 RMS(Cart)=  0.00000000 RMS(Int)=  0.00000000
 Iteration  1 RMS(Cart)=  0.00000000 RMS(Int)=  0.00000000
 GradGradGradGradGradGradGradGradGradGradGradGradGradGradGradGradGradGrad

 Leave Link  103 at Sat Aug 10 23:34:47 2019, MaxMem=  1835008000 cpu:               0.1 elap:               0.0
 (Enter /opt/g16/l202.exe)
                          Input orientation:                          
 ---------------------------------------------------------------------
 Center     Atomic      Atomic             Coordinates (Angstroms)
 Number     Number       Type             X           Y           Z
 ---------------------------------------------------------------------
      1          8           0        0.595729   -0.398200    0.206409
      2          8           0       -0.584686    0.398979    0.234558
      3          1           0        1.206663    0.188323   -0.251172
      4          1           0       -1.217705   -0.189103   -0.189796
 ---------------------------------------------------------------------
                    Distance matrix (angstroms):
                    1          2          3          4
     1  O    0.000000
     2  O    1.424663   0.000000
     3  H    0.962616   1.867951   0.000000
     4  H    1.867951   0.962616   2.454338   0.000000
 Stoichiometry    H2O2
 Framework group  C1[X(H2O2)]
 Deg. of freedom     6
 Full point group                 C1      NOp   1
 RotChk:  IX=0 Diff= 1.20D-02
 Largest Abelian subgroup         C1      NOp   1
 Largest concise Abelian subgroup C1      NOp   1
                         Standard orientation:                         
 ---------------------------------------------------------------------
 Center     Atomic      Atomic             Coordinates (Angstroms)
 Number     Number       Type             X           Y           Z
 ---------------------------------------------------------------------
      1          8           0        0.701723    0.122477   -0.049012
      2          8           0       -0.701723   -0.122477   -0.049012
      3          1           0        1.029533   -0.667836    0.392094
      4          1           0       -1.029533    0.667836    0.392094
 ---------------------------------------------------------------------
 Rotational constants (GHZ):         308.9194091          27.5117856          26.2294615
 Leave Link  202 at Sat Aug 10 23:34:47 2019, MaxMem=  1835008000 cpu:               0.0 elap:               0.0
 (Enter /opt/g16/l301.exe)
 Standard basis: def2TZVP (5D, 7F)
 Ernie: Thresh=  0.10000D-02 Tol=  0.10000D-05 Strict=F.
 There are    84 symmetry adapted cartesian basis functions of A   symmetry.
 There are    74 symmetry adapted basis functions of A   symmetry.
    74 basis functions,   118 primitive gaussians,    84 cartesian basis functions
     9 alpha electrons        9 beta electrons
       nuclear repulsion energy        37.3161312096 Hartrees.
 IExCor= 4639 DFT=T Ex+Corr=wB97XD ExCW=0 ScaHFX=  1.000000
 ScaDFX=  1.000000  1.000000  1.000000  1.000000 ScalE2=  1.000000  1.000000
 IRadAn=      5 IRanWt=     -1 IRanGd=            0 ICorTp=0 IEmpDi=121
 HFx  wShort=  0.000000 wLong=  0.200000 cFull=  0.222036 cShort=  0.000000 cLong=  0.777964
 DFx  wShort=  0.000000 wLong=  0.200000 cFull=  0.000000 cShort=  0.000000 cLong=  1.000000
 NAtoms=    4 NActive=    4 NUniq=    4 SFac= 1.00D+00 NAtFMM=   60 NAOKFM=F Big=F
 Integral buffers will be    131072 words long.
 Raffenetti 2 integral format.
 Two-electron integral symmetry is turned on.
 R6Disp:  Grimme-D2 Dispersion energy=       -0.0002252646 Hartrees.
 Nuclear repulsion after empirical dispersion term =       37.3159059450 Hartrees.
 Leave Link  301 at Sat Aug 10 23:34:47 2019, MaxMem=  1835008000 cpu:               0.4 elap:               0.1
 (Enter /opt/g16/l302.exe)
 NPDir=0 NMtPBC=     1 NCelOv=     1 NCel=       1 NClECP=     1 NCelD=      1
         NCelK=      1 NCelE2=     1 NClLst=     1 CellRange=     0.0.
 One-electron integrals computed using PRISM.
 One-electron integral symmetry used in STVInt
   1 Symmetry operations used in ECPInt.
 ECPInt:  NShTT=     465 NPrTT=    1428 LenC2=     465 LenP2D=    1306.
 LDataN:  DoStor=T MaxTD1= 6 Len=  172
 NBasis=    74 RedAO= T EigKep=  5.08D-03  NBF=    74
 NBsUse=    74 1.00D-06 EigRej= -1.00D+00 NBFU=    74
 Precomputing XC quadrature grid using
 IXCGrd= 4 IRadAn=           5 IRanWt=          -1 IRanGd=           0 AccXCQ= 1.00D-12.
 Generated NRdTot=       0 NPtTot=           0 NUsed=           0 NTot=          32
 NSgBfM=    84    84    84    84    84 MxSgAt=     4 MxSgA2=     4.
 Leave Link  302 at Sat Aug 10 23:34:47 2019, MaxMem=  1835008000 cpu:               2.3 elap:               0.3
 (Enter /opt/g16/l303.exe)
 DipDrv:  MaxL=1.
 Leave Link  303 at Sat Aug 10 23:34:47 2019, MaxMem=  1835008000 cpu:               0.4 elap:               0.0
 (Enter /opt/g16/l401.exe)
 Initial guess from the checkpoint file:  "check.chk"
 B after Tr=     0.000000   -0.000000    0.000000
         Rot=    0.999998   -0.000001   -0.000000   -0.001840 Ang=  -0.21 deg.
 Guess basis will be translated and rotated to current coordinates.
 JPrj=2 DoOrth=T DoCkMO=T.
 Generating alternative initial guess.
 ExpMin= 1.03D-01 ExpMax= 2.70D+04 ExpMxC= 9.22D+02 IAcc=3 IRadAn=         5 AccDes= 0.00D+00
 Harris functional with IExCor= 4639 and IRadAn=       5 diagonalized for initial guess.
 HarFok:  IExCor= 4639 AccDes= 0.00D+00 IRadAn=         5 IDoV= 1 UseB2=F ITyADJ=14
 ICtDFT=  3500011 ScaDFX=  1.000000  1.000000  1.000000  1.000000
 FoFCou: FMM=F IPFlag=           0 FMFlag=      100000 FMFlg1=           0
         NFxFlg=           0 DoJE=T BraDBF=F KetDBF=T FulRan=T
         wScrn=  0.000000 ICntrl=       500 IOpCl=  0 I1Cent=   200000004 NGrid=           0
         NMat0=    1 NMatS0=      1 NMatT0=    0 NMatD0=    1 NMtDS0=    0 NMtDT0=    0
 Petite list used in FoFCou.
 Harris En= -146.286627561267    
 Leave Link  401 at Sat Aug 10 23:34:48 2019, MaxMem=  1835008000 cpu:               5.4 elap:               0.7
 (Enter /opt/g16/l502.exe)
 Keep R1 ints in memory in canonical form, NReq=14983084.
 FoFCou: FMM=F IPFlag=           0 FMFlag=           0 FMFlg1=           0
         NFxFlg=           0 DoJE=F BraDBF=F KetDBF=F FulRan=T
         wScrn=  0.000000 ICntrl=       600 IOpCl=  0 I1Cent=           0 NGrid=           0
         NMat0=    1 NMatS0=   2775 NMatT0=    0 NMatD0=    1 NMtDS0=    0 NMtDT0=    0
 Symmetry not used in FoFCou.
 Two-electron integral symmetry not used.
 Closed shell SCF:
 Using DIIS extrapolation, IDIIS=  1040.
 NGot=  1835008000 LenX=  1827288934 LenY=  1827281437
 Requested convergence on RMS density matrix=1.00D-08 within  32 cycles.
 Requested convergence on MAX density matrix=1.00D-06.
 Requested convergence on             energy=1.00D-06.
 No special actions if energy rises.
 Integral accuracy reduced to 1.0D-05 until final iterations.

 Cycle   1  Pass 0  IDiag  1:
 E= -151.565068598279    
 DIIS: error= 3.55D-03 at cycle   1 NSaved=   1.
 NSaved= 1 IEnMin= 1 EnMin= -151.565068598279     IErMin= 1 ErrMin= 3.55D-03
 ErrMax= 3.55D-03  0.00D+00 EMaxC= 1.00D-01 BMatC= 1.57D-03 BMatP= 1.57D-03
 IDIUse=3 WtCom= 9.64D-01 WtEn= 3.55D-02
 Coeff-Com:  0.100D+01
 Coeff-En:   0.100D+01
 Coeff:      0.100D+01
 Gap=     1.032 Goal=   None    Shift=    0.000
 GapD=    1.032 DampG=2.000 DampE=1.000 DampFc=2.0000 IDamp=-1.
 RMSDP=4.83D-04 MaxDP=5.93D-03              OVMax= 1.52D-02

 Cycle   2  Pass 0  IDiag  1:
 E= -151.566731783224     Delta-E=       -0.001663184944 Rises=F Damp=F
 DIIS: error= 6.13D-04 at cycle   2 NSaved=   2.
 NSaved= 2 IEnMin= 2 EnMin= -151.566731783224     IErMin= 2 ErrMin= 6.13D-04
 ErrMax= 6.13D-04  0.00D+00 EMaxC= 1.00D-01 BMatC= 3.91D-05 BMatP= 1.57D-03
 IDIUse=3 WtCom= 9.94D-01 WtEn= 6.13D-03
 Coeff-Com: -0.143D+00 0.114D+01
 Coeff-En:   0.000D+00 0.100D+01
 Coeff:     -0.142D+00 0.114D+01
 Gap=     0.464 Goal=   None    Shift=    0.000
 RMSDP=1.66D-04 MaxDP=2.47D-03 DE=-1.66D-03 OVMax= 5.38D-03

 Cycle   3  Pass 0  IDiag  1:
 E= -151.566823309327     Delta-E=       -0.000091526103 Rises=F Damp=F
 DIIS: error= 1.56D-04 at cycle   3 NSaved=   3.
 NSaved= 3 IEnMin= 3 EnMin= -151.566823309327     IErMin= 3 ErrMin= 1.56D-04
 ErrMax= 1.56D-04  0.00D+00 EMaxC= 1.00D-01 BMatC= 1.53D-06 BMatP= 3.91D-05
 IDIUse=3 WtCom= 9.98D-01 WtEn= 1.56D-03
 Coeff-Com:  0.202D-01-0.274D+00 0.125D+01
 Coeff-En:   0.000D+00 0.000D+00 0.100D+01
 Coeff:      0.202D-01-0.273D+00 0.125D+01
 Gap=     0.464 Goal=   None    Shift=    0.000
 RMSDP=5.25D-05 MaxDP=6.85D-04 DE=-9.15D-05 OVMax= 1.61D-03

 Cycle   4  Pass 0  IDiag  1:
 E= -151.566828194121     Delta-E=       -0.000004884794 Rises=F Damp=F
 DIIS: error= 3.46D-05 at cycle   4 NSaved=   4.
 NSaved= 4 IEnMin= 4 EnMin= -151.566828194121     IErMin= 4 ErrMin= 3.46D-05
 ErrMax= 3.46D-05  0.00D+00 EMaxC= 1.00D-01 BMatC= 1.52D-07 BMatP= 1.53D-06
 IDIUse=1 WtCom= 1.00D+00 WtEn= 0.00D+00
 Coeff-Com:  0.100D-01-0.102D+00 0.293D+00 0.799D+00
 Coeff:      0.100D-01-0.102D+00 0.293D+00 0.799D+00
 Gap=     0.464 Goal=   None    Shift=    0.000
 RMSDP=9.11D-06 MaxDP=1.28D-04 DE=-4.88D-06 OVMax= 2.95D-04

 Initial convergence to 1.0D-05 achieved.  Increase integral accuracy.
 Cycle   5  Pass 1  IDiag  1:
 E= -151.566817864320     Delta-E=        0.000010329800 Rises=F Damp=F
 DIIS: error= 2.64D-05 at cycle   1 NSaved=   1.
 NSaved= 1 IEnMin= 1 EnMin= -151.566817864320     IErMin= 1 ErrMin= 2.64D-05
 ErrMax= 2.64D-05  0.00D+00 EMaxC= 1.00D-01 BMatC= 5.95D-08 BMatP= 5.95D-08
 IDIUse=1 WtCom= 1.00D+00 WtEn= 0.00D+00
 Coeff-Com:  0.100D+01
 Coeff:      0.100D+01
 Gap=     0.464 Goal=   None    Shift=    0.000
 RMSDP=9.11D-06 MaxDP=1.28D-04 DE= 1.03D-05 OVMax= 1.13D-04

 Cycle   6  Pass 1  IDiag  1:
 E= -151.566817907455     Delta-E=       -0.000000043135 Rises=F Damp=F
 DIIS: error= 1.24D-05 at cycle   2 NSaved=   2.
 NSaved= 2 IEnMin= 2 EnMin= -151.566817907455     IErMin= 2 ErrMin= 1.24D-05
 ErrMax= 1.24D-05  0.00D+00 EMaxC= 1.00D-01 BMatC= 2.00D-08 BMatP= 5.95D-08
 IDIUse=1 WtCom= 1.00D+00 WtEn= 0.00D+00
 Coeff-Com:  0.328D+00 0.672D+00
 Coeff:      0.328D+00 0.672D+00
 Gap=     0.464 Goal=   None    Shift=    0.000
 RMSDP=1.44D-06 MaxDP=2.00D-05 DE=-4.31D-08 OVMax= 4.68D-05

 Cycle   7  Pass 1  IDiag  1:
 E= -151.566817921711     Delta-E=       -0.000000014256 Rises=F Damp=F
 DIIS: error= 3.93D-06 at cycle   3 NSaved=   3.
 NSaved= 3 IEnMin= 3 EnMin= -151.566817921711     IErMin= 3 ErrMin= 3.93D-06
 ErrMax= 3.93D-06  0.00D+00 EMaxC= 1.00D-01 BMatC= 1.94D-09 BMatP= 2.00D-08
 IDIUse=1 WtCom= 1.00D+00 WtEn= 0.00D+00
 Coeff-Com: -0.698D-01 0.170D+00 0.900D+00
 Coeff:     -0.698D-01 0.170D+00 0.900D+00
 Gap=     0.464 Goal=   None    Shift=    0.000
 RMSDP=9.18D-07 MaxDP=1.47D-05 DE=-1.43D-08 OVMax= 2.86D-05

 Cycle   8  Pass 1  IDiag  1:
 E= -151.566817924440     Delta-E=       -0.000000002729 Rises=F Damp=F
 DIIS: error= 8.91D-07 at cycle   4 NSaved=   4.
 NSaved= 4 IEnMin= 4 EnMin= -151.566817924440     IErMin= 4 ErrMin= 8.91D-07
 ErrMax= 8.91D-07  0.00D+00 EMaxC= 1.00D-01 BMatC= 5.19D-11 BMatP= 1.94D-09
 IDIUse=1 WtCom= 1.00D+00 WtEn= 0.00D+00
 Coeff-Com:  0.130D-01-0.107D+00-0.357D+00 0.145D+01
 Coeff:      0.130D-01-0.107D+00-0.357D+00 0.145D+01
 Gap=     0.464 Goal=   None    Shift=    0.000
 RMSDP=4.61D-07 MaxDP=7.81D-06 DE=-2.73D-09 OVMax= 1.60D-05

 Cycle   9  Pass 1  IDiag  1:
 E= -151.566817924697     Delta-E=       -0.000000000257 Rises=F Damp=F
 DIIS: error= 2.03D-07 at cycle   5 NSaved=   5.
 NSaved= 5 IEnMin= 5 EnMin= -151.566817924697     IErMin= 5 ErrMin= 2.03D-07
 ErrMax= 2.03D-07  0.00D+00 EMaxC= 1.00D-01 BMatC= 5.14D-12 BMatP= 5.19D-11
 IDIUse=1 WtCom= 1.00D+00 WtEn= 0.00D+00
 Coeff-Com:  0.687D-02-0.496D-01-0.175D+00 0.650D+00 0.569D+00
 Coeff:      0.687D-02-0.496D-01-0.175D+00 0.650D+00 0.569D+00
 Gap=     0.464 Goal=   None    Shift=    0.000
 RMSDP=2.09D-08 MaxDP=2.89D-07 DE=-2.57D-10 OVMax= 6.21D-07

 Cycle  10  Pass 1  IDiag  1:
 E= -151.566817924700     Delta-E=       -0.000000000002 Rises=F Damp=F
 DIIS: error= 7.53D-08 at cycle   6 NSaved=   6.
 NSaved= 6 IEnMin= 6 EnMin= -151.566817924700     IErMin= 6 ErrMin= 7.53D-08
 ErrMax= 7.53D-08  0.00D+00 EMaxC= 1.00D-01 BMatC= 7.38D-13 BMatP= 5.14D-12
 IDIUse=1 WtCom= 1.00D+00 WtEn= 0.00D+00
 Coeff-Com: -0.209D-03 0.515D-02 0.934D-02-0.697D-01 0.263D+00 0.793D+00
 Coeff:     -0.209D-03 0.515D-02 0.934D-02-0.697D-01 0.263D+00 0.793D+00
 Gap=     0.464 Goal=   None    Shift=    0.000
 RMSDP=7.81D-09 MaxDP=9.50D-08 DE=-2.16D-12 OVMax= 2.55D-07

 SCF Done:  E(RwB97XD) =  -151.566817925     A.U. after   10 cycles
            NFock= 10  Conv=0.78D-08     -V/T= 2.0035
 KE= 1.510382011985D+02 PE=-4.335329377640D+02 EE= 9.361201269573D+01
 Leave Link  502 at Sat Aug 10 23:34:51 2019, MaxMem=  1835008000 cpu:              20.8 elap:               2.7
 (Enter /opt/g16/l508.exe)
 QCSCF skips out because SCF is already converged.
 Leave Link  508 at Sat Aug 10 23:34:51 2019, MaxMem=  1835008000 cpu:               0.0 elap:               0.0
 (Enter /opt/g16/l701.exe)
 ... and contract with generalized density number  0.
 Compute integral first derivatives.
 R6Disp: Adding Grimme-D2 dispersion energy 1st derivatives to the gradient.
   1 Symmetry operations used in ECPInt.
 ECPInt:  NShTT=     465 NPrTT=    1428 LenC2=     465 LenP2D=    1306.
 LDataN:  DoStor=T MaxTD1= 7 Len=  274
 Leave Link  701 at Sat Aug 10 23:34:52 2019, MaxMem=  1835008000 cpu:               6.2 elap:               0.8
 (Enter /opt/g16/l702.exe)
 L702 exits ... SP integral derivatives will be done elsewhere.
 Leave Link  702 at Sat Aug 10 23:34:52 2019, MaxMem=  1835008000 cpu:               0.3 elap:               0.0
 (Enter /opt/g16/l703.exe)
 Integral derivatives from FoFJK, PRISM(SPDF).
 Compute integral first derivatives, UseDBF=F ICtDFT=           0.
 Calling FoFJK, ICntrl=      2127 FMM=F ISym2X=0 I1Cent= 0 IOpClX= 0 NMat=1 NMatS=1 NMatT=0.
 FoFJK:  IHMeth= 1 ICntrl=    2127 DoSepK=T KAlg= 0 I1Cent=           0 FoldK=F
 IRaf=         1 NMat=       1 IRICut=       1 DoRegI=T DoRafI=F ISym2E= 0 IDoP0=0 IntGTp=1.
 FoFCou: FMM=F IPFlag=           0 FMFlag=      100000 FMFlg1=         800
         NFxFlg=           0 DoJE=F BraDBF=F KetDBF=F FulRan=T
         wScrn=  0.000000 ICntrl=      2527 IOpCl=  0 I1Cent=           0 NGrid=           0
         NMat0=    1 NMatS0=      1 NMatT0=    0 NMatD0=    1 NMtDS0=    0 NMtDT0=    0
 Symmetry not used in FoFCou.
 Leave Link  703 at Sat Aug 10 23:34:54 2019, MaxMem=  1835008000 cpu:              18.4 elap:               2.3
 (Enter /opt/g16/l716.exe)
 Dipole        = 1.22575026D-08 1.56317914D-09 6.32540366D-01
 ***** Axes restored to original set *****
 -------------------------------------------------------------------
 Center     Atomic                   Forces (Hartrees/Bohr)
 Number     Number              X              Y              Z
 -------------------------------------------------------------------
      1        8           0.000949419   -0.001012875    0.000547948
      2        8          -0.000920887    0.001014889    0.000591197
      3        1          -0.001112306    0.000014222   -0.000542102
      4        1           0.001083774   -0.000016236   -0.000597043
 -------------------------------------------------------------------
 Cartesian Forces:  Max     0.001112306 RMS     0.000791501
 Leave Link  716 at Sat Aug 10 23:34:54 2019, MaxMem=  1835008000 cpu:               0.3 elap:               0.0
 (Enter /opt/g16/l103.exe)

 GradGradGradGradGradGradGradGradGradGradGradGradGradGradGradGradGradGrad
 Berny optimization.
 FormGI is forming the generalized inverse of G from B-inverse, IUseBI=4.
 Internal  Forces:  Max     0.001545540 RMS     0.001103435
 Search for a local minimum.
 Step number   1 out of a maximum of   20 on scan point     2 out of    37
 All quantities printed in internal units (Hartrees-Bohrs-Radians)
 RMS Force = .10338D-02 SwitMx=.10000D-02 MixMth= 1
 Mixed Optimization -- RFO/linear search
 Second derivative matrix not updated -- first step.
 The second derivative matrix:
                          R1        R2        R3        A1        A2
           R1           0.35757
           R2          -0.00302   0.52718
           R3          -0.00302  -0.00027   0.52718
           A1           0.07300  -0.00278   0.00071   0.22971
           A2           0.07300   0.00071  -0.00278   0.02036   0.22971
           D1          -0.00164   0.00253   0.00253   0.00917   0.00917
                          D1
           D1           0.00954
 ITU=  0
     Eigenvalues ---    0.18743   0.20931   0.42000   0.52712   0.52749
     Eigenvalues --- 1000.00000
 RFO step:  Lambda=-2.54295276D-05 EMin= 1.87427830D-01
 Linear search not attempted -- first point.
 Iteration  1 RMS(Cart)=  0.00504061 RMS(Int)=  0.00001517
 Iteration  2 RMS(Cart)=  0.00001409 RMS(Int)=  0.00000000
 Iteration  3 RMS(Cart)=  0.00000000 RMS(Int)=  0.00000000
 Iteration  1 RMS(Cart)=  0.00000000 RMS(Int)=  0.00000000
 ITry= 1 IFail=0 DXMaxC= 7.48D-03 DCOld= 1.00D+10 DXMaxT= 5.00D-02 DXLimC= 3.00D+00 Rises=F
 Variable       Old X    -DE/DX   Delta X   Delta X   Delta X     New X
                                 (Linear)    (Quad)   (Total)
    R1        2.69222   0.00042   0.00000   0.00420   0.00420   2.69642
    R2        1.81908  -0.00044   0.00000  -0.00084  -0.00084   1.81824
    R3        1.81908  -0.00044   0.00000  -0.00084  -0.00084   1.81824
    A1        1.76635  -0.00155   0.00000  -0.00741  -0.00741   1.75894
    A2        1.76635  -0.00155   0.00000  -0.00741  -0.00741   1.75894
    D1        2.16949  -0.00140   0.00000   0.00000  -0.00000   2.16949
         Item               Value     Threshold  Converged?
 Maximum Force            0.001546     0.000450     NO 
 RMS     Force            0.001034     0.000300     NO 
 Maximum Displacement     0.007476     0.001800     NO 
 RMS     Displacement     0.005047     0.001200     NO 
 Predicted change in Energy=-1.271476D-05
 Lowest energy point so far.  Saving SCF results.
 GradGradGradGradGradGradGradGradGradGradGradGradGradGradGradGradGradGrad

 Leave Link  103 at Sat Aug 10 23:34:54 2019, MaxMem=  1835008000 cpu:               0.1 elap:               0.0
 (Enter /opt/g16/l202.exe)
                          Input orientation:                          
 ---------------------------------------------------------------------
 Center     Atomic      Atomic             Coordinates (Angstroms)
 Number     Number       Type             X           Y           Z
 ---------------------------------------------------------------------
      1          8           0        0.595515   -0.400504    0.206634
      2          8           0       -0.584461    0.401283    0.234765
      3          1           0        1.202707    0.188901   -0.251289
      4          1           0       -1.213759   -0.189682   -0.190109
 ---------------------------------------------------------------------
                    Distance matrix (angstroms):
                    1          2          3          4
     1  O    0.000000
     2  O    1.426884   0.000000
     3  H    0.962171   1.864222   0.000000
     4  H    1.864222   0.962171   2.446708   0.000000
 Stoichiometry    H2O2
 Framework group  C2[X(H2O2)]
 Deg. of freedom     4
 Full point group                 C2      NOp   2
 Omega: Change in point group or standard orientation.

 Old FWG=C01  [X(H2O2)]
 New FWG=C02  [X(H2O2)]
 RotChk:  IX=0 Diff= 1.82D+00
 Largest Abelian subgroup         C2      NOp   2
 Largest concise Abelian subgroup C2      NOp   2
                         Standard orientation:                         
 ---------------------------------------------------------------------
 Center     Atomic      Atomic             Coordinates (Angstroms)
 Number     Number       Type             X           Y           Z
 ---------------------------------------------------------------------
      1          8           0        0.000000    0.713442   -0.049060
      2          8           0       -0.000000   -0.713442   -0.049060
      3          1           0        0.835724    0.893398    0.392478
      4          1           0       -0.835724   -0.893398    0.392478
 ---------------------------------------------------------------------
 Rotational constants (GHZ):         307.9336462          27.4698982          26.1862389
 Leave Link  202 at Sat Aug 10 23:34:54 2019, MaxMem=  1835008000 cpu:               0.0 elap:               0.0
 (Enter /opt/g16/l301.exe)
 Standard basis: def2TZVP (5D, 7F)
 Ernie: Thresh=  0.10000D-02 Tol=  0.10000D-05 Strict=F.
 There are    42 symmetry adapted cartesian basis functions of A   symmetry.
 There are    42 symmetry adapted cartesian basis functions of B   symmetry.
 There are    37 symmetry adapted basis functions of A   symmetry.
 There are    37 symmetry adapted basis functions of B   symmetry.
    74 basis functions,   118 primitive gaussians,    84 cartesian basis functions
     9 alpha electrons        9 beta electrons
       nuclear repulsion energy        37.2929282157 Hartrees.
 IExCor= 4639 DFT=T Ex+Corr=wB97XD ExCW=0 ScaHFX=  1.000000
 ScaDFX=  1.000000  1.000000  1.000000  1.000000 ScalE2=  1.000000  1.000000
 IRadAn=      5 IRanWt=     -1 IRanGd=            0 ICorTp=0 IEmpDi=121
 HFx  wShort=  0.000000 wLong=  0.200000 cFull=  0.222036 cShort=  0.000000 cLong=  0.777964
 DFx  wShort=  0.000000 wLong=  0.200000 cFull=  0.000000 cShort=  0.000000 cLong=  1.000000
 NAtoms=    4 NActive=    4 NUniq=    2 SFac= 4.00D+00 NAtFMM=   60 NAOKFM=F Big=F
 Integral buffers will be    131072 words long.
 Raffenetti 2 integral format.
 Two-electron integral symmetry is turned on.
 R6Disp:  Grimme-D2 Dispersion energy=       -0.0002254970 Hartrees.
 Nuclear repulsion after empirical dispersion term =       37.2927027187 Hartrees.
 Leave Link  301 at Sat Aug 10 23:34:54 2019, MaxMem=  1835008000 cpu:               0.5 elap:               0.1
 (Enter /opt/g16/l302.exe)
 NPDir=0 NMtPBC=     1 NCelOv=     1 NCel=       1 NClECP=     1 NCelD=      1
         NCelK=      1 NCelE2=     1 NClLst=     1 CellRange=     0.0.
 One-electron integrals computed using PRISM.
 One-electron integral symmetry used in STVInt
   2 Symmetry operations used in ECPInt.
 ECPInt:  NShTT=     465 NPrTT=    1428 LenC2=     465 LenP2D=    1306.
 LDataN:  DoStor=T MaxTD1= 6 Len=  172
 NBasis=    74 RedAO= T EigKep=  5.10D-03  NBF=    37    37
 NBsUse=    74 1.00D-06 EigRej= -1.00D+00 NBFU=    37    37
 Precomputing XC quadrature grid using
 IXCGrd= 4 IRadAn=           5 IRanWt=          -1 IRanGd=           0 AccXCQ= 1.00D-12.
 Generated NRdTot=       0 NPtTot=           0 NUsed=           0 NTot=          32
 NSgBfM=    84    84    84    84    84 MxSgAt=     4 MxSgA2=     4.
 Leave Link  302 at Sat Aug 10 23:34:54 2019, MaxMem=  1835008000 cpu:               2.2 elap:               0.3
 (Enter /opt/g16/l303.exe)
 DipDrv:  MaxL=1.
 Leave Link  303 at Sat Aug 10 23:34:54 2019, MaxMem=  1835008000 cpu:               0.3 elap:               0.0
 (Enter /opt/g16/l401.exe)
 Initial guess from the checkpoint file:  "check.chk"
 B after Tr=    -0.000000   -0.000000   -0.000000
         Rot=    0.765817   -0.000000   -0.000000   -0.643059 Ang= -80.04 deg.
 Guess basis will be translated and rotated to current coordinates.
 JPrj=2 DoOrth=T DoCkMO=T.
 Initial guess orbital symmetries:
       Occupied  (A) (B) (A) (B) (A) (B) (A) (A) (B)
       Virtual   (B) (A) (B) (A) (B) (B) (A) (A) (B) (A) (B) (A)
                 (B) (B) (A) (A) (B) (A) (B) (A) (A) (B) (B) (A)
                 (B) (B) (A) (B) (A) (A) (B) (A) (B) (A) (B) (A)
                 (B) (A) (B) (A) (A) (B) (A) (B) (B) (A) (B) (A)
                 (A) (B) (B) (A) (A) (B) (A) (B) (B) (A) (B) (A)
                 (B) (A) (B) (A) (B)
 The electronic state of the initial guess is 1-A.
 Leave Link  401 at Sat Aug 10 23:34:55 2019, MaxMem=  1835008000 cpu:               0.9 elap:               0.1
 (Enter /opt/g16/l502.exe)
 Keep R1 ints in memory in symmetry-blocked form, NReq=14989340.
 FoFCou: FMM=F IPFlag=           0 FMFlag=           0 FMFlg1=           0
         NFxFlg=           0 DoJE=F BraDBF=F KetDBF=F FulRan=T
         wScrn=  0.000000 ICntrl=       600 IOpCl=  0 I1Cent=           0 NGrid=           0
         NMat0=    1 NMatS0=   2775 NMatT0=    0 NMatD0=    1 NMtDS0=    0 NMtDT0=    0
 Petite list used in FoFCou.
 Closed shell SCF:
 Using DIIS extrapolation, IDIIS=  1040.
 NGot=  1835008000 LenX=  1833059188 LenY=  1833051691
 Requested convergence on RMS density matrix=1.00D-08 within  32 cycles.
 Requested convergence on MAX density matrix=1.00D-06.
 Requested convergence on             energy=1.00D-06.
 No special actions if energy rises.

 Cycle   1  Pass 1  IDiag  1:
 E= -151.566820669807    
 DIIS: error= 2.72D-04 at cycle   1 NSaved=   1.
 NSaved= 1 IEnMin= 1 EnMin= -151.566820669807     IErMin= 1 ErrMin= 2.72D-04
 ErrMax= 2.72D-04  0.00D+00 EMaxC= 1.00D-01 BMatC= 8.54D-06 BMatP= 8.54D-06
 IDIUse=3 WtCom= 9.97D-01 WtEn= 2.72D-03
 Coeff-Com:  0.100D+01
 Coeff-En:   0.100D+01
 Coeff:      0.100D+01
 Gap=     0.465 Goal=   None    Shift=    0.000
 RMSDP=3.25D-05 MaxDP=2.61D-04              OVMax= 8.25D-04

 Cycle   2  Pass 1  IDiag  1:
 E= -151.566829680717     Delta-E=       -0.000009010910 Rises=F Damp=F
 DIIS: error= 8.10D-05 at cycle   2 NSaved=   2.
 NSaved= 2 IEnMin= 2 EnMin= -151.566829680717     IErMin= 2 ErrMin= 8.10D-05
 ErrMax= 8.10D-05  0.00D+00 EMaxC= 1.00D-01 BMatC= 2.96D-07 BMatP= 8.54D-06
 IDIUse=1 WtCom= 1.00D+00 WtEn= 0.00D+00
 Coeff-Com: -0.804D-01 0.108D+01
 Coeff:     -0.804D-01 0.108D+01
 Gap=     0.464 Goal=   None    Shift=    0.000
 RMSDP=9.30D-06 MaxDP=7.15D-05 DE=-9.01D-06 OVMax= 2.86D-04

 Cycle   3  Pass 1  IDiag  1:
 E= -151.566830126580     Delta-E=       -0.000000445863 Rises=F Damp=F
 DIIS: error= 2.72D-05 at cycle   3 NSaved=   3.
 NSaved= 3 IEnMin= 3 EnMin= -151.566830126580     IErMin= 3 ErrMin= 2.72D-05
 ErrMax= 2.72D-05  0.00D+00 EMaxC= 1.00D-01 BMatC= 8.98D-08 BMatP= 2.96D-07
 IDIUse=1 WtCom= 1.00D+00 WtEn= 0.00D+00
 Coeff-Com: -0.497D-01 0.375D+00 0.675D+00
 Coeff:     -0.497D-01 0.375D+00 0.675D+00
 Gap=     0.464 Goal=   None    Shift=    0.000
 RMSDP=2.99D-06 MaxDP=3.15D-05 DE=-4.46D-07 OVMax= 1.04D-04

 Cycle   4  Pass 1  IDiag  1:
 E= -151.566830200393     Delta-E=       -0.000000073814 Rises=F Damp=F
 DIIS: error= 6.72D-06 at cycle   4 NSaved=   4.
 NSaved= 4 IEnMin= 4 EnMin= -151.566830200393     IErMin= 4 ErrMin= 6.72D-06
 ErrMax= 6.72D-06  0.00D+00 EMaxC= 1.00D-01 BMatC= 7.32D-09 BMatP= 8.98D-08
 IDIUse=1 WtCom= 1.00D+00 WtEn= 0.00D+00
 Coeff-Com: -0.792D-03-0.600D-01 0.141D+00 0.920D+00
 Coeff:     -0.792D-03-0.600D-01 0.141D+00 0.920D+00
 Gap=     0.464 Goal=   None    Shift=    0.000
 RMSDP=1.77D-06 MaxDP=1.68D-05 DE=-7.38D-08 OVMax= 7.84D-05

 Cycle   5  Pass 1  IDiag  1:
 E= -151.566830213547     Delta-E=       -0.000000013154 Rises=F Damp=F
 DIIS: error= 2.68D-06 at cycle   5 NSaved=   5.
 NSaved= 5 IEnMin= 5 EnMin= -151.566830213547     IErMin= 5 ErrMin= 2.68D-06
 ErrMax= 2.68D-06  0.00D+00 EMaxC= 1.00D-01 BMatC= 6.44D-10 BMatP= 7.32D-09
 IDIUse=1 WtCom= 1.00D+00 WtEn= 0.00D+00
 Coeff-Com:  0.544D-02-0.488D-01-0.511D-01 0.124D+00 0.971D+00
 Coeff:      0.544D-02-0.488D-01-0.511D-01 0.124D+00 0.971D+00
 Gap=     0.464 Goal=   None    Shift=    0.000
 RMSDP=7.87D-07 MaxDP=8.35D-06 DE=-1.32D-08 OVMax= 3.89D-05

 Cycle   6  Pass 1  IDiag  1:
 E= -151.566830215507     Delta-E=       -0.000000001960 Rises=F Damp=F
 DIIS: error= 1.01D-06 at cycle   6 NSaved=   6.
 NSaved= 6 IEnMin= 6 EnMin= -151.566830215507     IErMin= 6 ErrMin= 1.01D-06
 ErrMax= 1.01D-06  0.00D+00 EMaxC= 1.00D-01 BMatC= 5.22D-11 BMatP= 6.44D-10
 IDIUse=1 WtCom= 1.00D+00 WtEn= 0.00D+00
 Coeff-Com: -0.109D-02 0.172D-01-0.137D-02-0.120D+00-0.310D+00 0.141D+01
 Coeff:     -0.109D-02 0.172D-01-0.137D-02-0.120D+00-0.310D+00 0.141D+01
 Gap=     0.464 Goal=   None    Shift=    0.000
 RMSDP=4.17D-07 MaxDP=4.32D-06 DE=-1.96D-09 OVMax= 2.13D-05

 Cycle   7  Pass 1  IDiag  1:
 E= -151.566830215796     Delta-E=       -0.000000000289 Rises=F Damp=F
 DIIS: error= 1.18D-07 at cycle   7 NSaved=   7.
 NSaved= 7 IEnMin= 7 EnMin= -151.566830215796     IErMin= 7 ErrMin= 1.18D-07
 ErrMax= 1.18D-07  0.00D+00 EMaxC= 1.00D-01 BMatC= 1.01D-12 BMatP= 5.22D-11
 IDIUse=1 WtCom= 1.00D+00 WtEn= 0.00D+00
 Coeff-Com: -0.160D-03 0.123D-02 0.237D-02 0.700D-03-0.244D-01-0.402D-01
 Coeff-Com:  0.106D+01
 Coeff:     -0.160D-03 0.123D-02 0.237D-02 0.700D-03-0.244D-01-0.402D-01
 Coeff:      0.106D+01
 Gap=     0.464 Goal=   None    Shift=    0.000
 RMSDP=4.14D-08 MaxDP=4.00D-07 DE=-2.89D-10 OVMax= 1.86D-06

 Cycle   8  Pass 1  IDiag  1:
 E= -151.566830215800     Delta-E=       -0.000000000004 Rises=F Damp=F
 DIIS: error= 2.84D-08 at cycle   8 NSaved=   8.
 NSaved= 8 IEnMin= 8 EnMin= -151.566830215800     IErMin= 8 ErrMin= 2.84D-08
 ErrMax= 2.84D-08  0.00D+00 EMaxC= 1.00D-01 BMatC= 8.98D-14 BMatP= 1.01D-12
 IDIUse=1 WtCom= 1.00D+00 WtEn= 0.00D+00
 Coeff-Com:  0.652D-04-0.104D-02 0.125D-03 0.720D-02 0.157D-01-0.902D-01
 Coeff-Com:  0.363D-01 0.103D+01
 Coeff:      0.652D-04-0.104D-02 0.125D-03 0.720D-02 0.157D-01-0.902D-01
 Coeff:      0.363D-01 0.103D+01
 Gap=     0.464 Goal=   None    Shift=    0.000
 RMSDP=1.09D-08 MaxDP=1.05D-07 DE=-3.89D-12 OVMax= 4.80D-07

 Cycle   9  Pass 1  IDiag  1:
 E= -151.566830215801     Delta-E=       -0.000000000001 Rises=F Damp=F
 DIIS: error= 6.28D-09 at cycle   9 NSaved=   9.
 NSaved= 9 IEnMin= 9 EnMin= -151.566830215801     IErMin= 9 ErrMin= 6.28D-09
 ErrMax= 6.28D-09  0.00D+00 EMaxC= 1.00D-01 BMatC= 2.46D-15 BMatP= 8.98D-14
 IDIUse=1 WtCom= 1.00D+00 WtEn= 0.00D+00
 Coeff-Com:  0.412D-05-0.272D-05-0.609D-04-0.298D-03-0.137D-03 0.930D-02
 Coeff-Com: -0.426D-01-0.817D-01 0.112D+01
 Coeff:      0.412D-05-0.272D-05-0.609D-04-0.298D-03-0.137D-03 0.930D-02
 Coeff:     -0.426D-01-0.817D-01 0.112D+01
 Gap=     0.464 Goal=   None    Shift=    0.000
 RMSDP=2.13D-09 MaxDP=3.66D-08 DE=-6.54D-13 OVMax= 6.88D-08

 SCF Done:  E(RwB97XD) =  -151.566830216     A.U. after    9 cycles
            NFock=  9  Conv=0.21D-08     -V/T= 2.0035
 KE= 1.510386068746D+02 PE=-4.334855804489D+02 EE= 9.358744063979D+01
 Leave Link  502 at Sat Aug 10 23:34:57 2019, MaxMem=  1835008000 cpu:              16.6 elap:               2.1
 (Enter /opt/g16/l508.exe)
 QCSCF skips out because SCF is already converged.
 Leave Link  508 at Sat Aug 10 23:34:57 2019, MaxMem=  1835008000 cpu:               0.2 elap:               0.0
 (Enter /opt/g16/l701.exe)
 ... and contract with generalized density number  0.
 Compute integral first derivatives.
 R6Disp: Adding Grimme-D2 dispersion energy 1st derivatives to the gradient.
   2 Symmetry operations used in ECPInt.
 ECPInt:  NShTT=     465 NPrTT=    1428 LenC2=     465 LenP2D=    1306.
 LDataN:  DoStor=T MaxTD1= 7 Len=  274
 Leave Link  701 at Sat Aug 10 23:34:57 2019, MaxMem=  1835008000 cpu:               6.2 elap:               0.8
 (Enter /opt/g16/l702.exe)
 L702 exits ... SP integral derivatives will be done elsewhere.
 Leave Link  702 at Sat Aug 10 23:34:58 2019, MaxMem=  1835008000 cpu:               0.3 elap:               0.0
 (Enter /opt/g16/l703.exe)
 Integral derivatives from FoFJK, PRISM(SPDF).
 Compute integral first derivatives, UseDBF=F ICtDFT=           0.
 Calling FoFJK, ICntrl=      2127 FMM=F ISym2X=1 I1Cent= 0 IOpClX= 0 NMat=1 NMatS=1 NMatT=0.
 FoFJK:  IHMeth= 1 ICntrl=    2127 DoSepK=T KAlg= 0 I1Cent=           0 FoldK=F
 IRaf=         1 NMat=       1 IRICut=       1 DoRegI=T DoRafI=F ISym2E= 1 IDoP0=0 IntGTp=1.
 FoFCou: FMM=F IPFlag=           0 FMFlag=      100000 FMFlg1=         800
         NFxFlg=           0 DoJE=F BraDBF=F KetDBF=F FulRan=T
         wScrn=  0.000000 ICntrl=      2527 IOpCl=  0 I1Cent=           0 NGrid=           0
         NMat0=    1 NMatS0=      1 NMatT0=    0 NMatD0=    1 NMtDS0=    0 NMtDT0=    0
 Petite list used in FoFCou.
 Leave Link  703 at Sat Aug 10 23:34:59 2019, MaxMem=  1835008000 cpu:              14.0 elap:               1.8
 (Enter /opt/g16/l716.exe)
 Dipole        = 2.22044605D-16 4.44089210D-16 6.32426993D-01
 ***** Axes restored to original set *****
 -------------------------------------------------------------------
 Center     Atomic                   Forces (Hartrees/Bohr)
 Number     Number              X              Y              Z
 -------------------------------------------------------------------
      1        8           0.000226866    0.000369321    0.000623423
      2        8          -0.000195347   -0.000367096    0.000635297
      3        1          -0.000176005   -0.000276715   -0.000624860
      4        1           0.000144485    0.000274490   -0.000633860
 -------------------------------------------------------------------
 Cartesian Forces:  Max     0.000635297 RMS     0.000423187
 Leave Link  716 at Sat Aug 10 23:34:59 2019, MaxMem=  1835008000 cpu:               0.3 elap:               0.0
 (Enter /opt/g16/l103.exe)

 GradGradGradGradGradGradGradGradGradGradGradGradGradGradGradGradGradGrad
 Berny optimization.
 Using GEDIIS/GDIIS optimizer.
 FormGI is forming the generalized inverse of G from B-inverse, IUseBI=4.
 Internal  Forces:  Max     0.001259343 RMS     0.000514626
 Search for a local minimum.
 Step number   2 out of a maximum of   20 on scan point     2 out of    37
 All quantities printed in internal units (Hartrees-Bohrs-Radians)
 RMS Force = .24875D-04 SwitMx=.10000D-02 MixMth= 2
 Mixed Optimization -- En-DIIS/RFO-DIIS
 Update second derivatives using D2CorX and points    1    2
 DE= -1.23D-05 DEPred=-1.27D-05 R= 9.67D-01
 TightC=F SS=  1.41D+00  RLast= 1.14D-02 DXNew= 8.4090D-02 3.4059D-02
 Trust test= 9.67D-01 RLast= 1.14D-02 DXMaxT set to 5.00D-02
 The second derivative matrix:
                          R1        R2        R3        A1        A2
           R1           0.35775
           R2          -0.00332   0.52760
           R3          -0.00332   0.00014   0.52759
           A1           0.07238  -0.00176   0.00173   0.23177
           A2           0.07238   0.00173  -0.00176   0.02242   0.23177
           D1          -0.00155   0.00247   0.00247   0.00882   0.00882
                          D1
           D1           0.00946
 ITU=  1  0
 Use linear search instead of GDIIS.
     Eigenvalues ---    0.19124   0.20931   0.42054   0.52749   0.52791
     Eigenvalues --- 1000.00000
 RFO step:  Lambda= 0.00000000D+00 EMin= 1.91239740D-01
 Quartic linear search produced a step of -0.02320.
 Iteration  1 RMS(Cart)=  0.00011783 RMS(Int)=  0.00000001
 Iteration  2 RMS(Cart)=  0.00000001 RMS(Int)=  0.00000000
 Iteration  1 RMS(Cart)=  0.00000000 RMS(Int)=  0.00000000
 ITry= 1 IFail=0 DXMaxC= 1.78D-04 DCOld= 1.00D+10 DXMaxT= 5.00D-02 DXLimC= 3.00D+00 Rises=F
 ClnCor:  largest displacement from symmetrization is 1.76D-10 for atom     2.
 Variable       Old X    -DE/DX   Delta X   Delta X   Delta X     New X
                                 (Linear)    (Quad)   (Total)
    R1        2.69642  -0.00001  -0.00010  -0.00000  -0.00010   2.69632
    R2        1.81824   0.00002   0.00002   0.00001   0.00003   1.81827
    R3        1.81824   0.00002   0.00002   0.00001   0.00003   1.81827
    A1        1.75894   0.00003   0.00017  -0.00000   0.00017   1.75910
    A2        1.75894   0.00003   0.00017  -0.00000   0.00017   1.75910
    D1        2.16949  -0.00126  -0.00000   0.00000  -0.00000   2.16949
         Item               Value     Threshold  Converged?
 Maximum Force            0.000035     0.000450     YES
 RMS     Force            0.000025     0.000300     YES
 Maximum Displacement     0.000178     0.001800     YES
 RMS     Displacement     0.000118     0.001200     YES
 Predicted change in Energy=-6.690512D-09
 Optimization completed.
    -- Stationary point found.
                           ----------------------------
                           !   Optimized Parameters   !
                           ! (Angstroms and Degrees)  !
 --------------------------                            --------------------------
 ! Name  Definition              Value          Derivative Info.                !
 --------------------------------------------------------------------------------
 ! R1    R(1,2)                  1.4269         -DE/DX =    0.0                 !
 ! R2    R(1,3)                  0.9622         -DE/DX =    0.0                 !
 ! R3    R(2,4)                  0.9622         -DE/DX =    0.0                 !
 ! A1    A(2,1,3)              100.7796         -DE/DX =    0.0                 !
 ! A2    A(1,2,4)              100.7796         -DE/DX =    0.0                 !
 ! D1    D(3,1,2,4)            124.3023         -DE/DX =   -0.0013              !
 --------------------------------------------------------------------------------
 Lowest energy point so far.  Saving SCF results.
 Iteration  1 RMS(Cart)=  0.06496492 RMS(Int)=  0.00391807
 Iteration  2 RMS(Cart)=  0.00287953 RMS(Int)=  0.00000174
 Iteration  3 RMS(Cart)=  0.00000163 RMS(Int)=  0.00000000
 Iteration  4 RMS(Cart)=  0.00000000 RMS(Int)=  0.00000000
 Iteration  1 RMS(Cart)=  0.00000000 RMS(Int)=  0.00000000
 GradGradGradGradGradGradGradGradGradGradGradGradGradGradGradGradGradGrad

 Leave Link  103 at Sat Aug 10 23:34:59 2019, MaxMem=  1835008000 cpu:               0.1 elap:               0.0
 (Enter /opt/g16/l202.exe)
                          Input orientation:                          
 ---------------------------------------------------------------------
 Center     Atomic      Atomic             Coordinates (Angstroms)
 Number     Number       Type             X           Y           Z
 ---------------------------------------------------------------------
      1          8           0        0.588307   -0.409614    0.169557
      2          8           0       -0.579118    0.410262    0.197341
      3          1           0        1.226799    0.199097   -0.214637
      4          1           0       -1.235986   -0.199746   -0.152261
 ---------------------------------------------------------------------
                    Distance matrix (angstroms):
                    1          2          3          4
     1  O    0.000000
     2  O    1.426832   0.000000
     3  H    0.962188   1.864311   0.000000
     4  H    1.864311   0.962188   2.495651   0.000000
 Stoichiometry    H2O2
 Framework group  C2[X(H2O2)]
 Deg. of freedom     4
 Full point group                 C2      NOp   2
 RotChk:  IX=0 Diff= 2.18D-02
 Largest Abelian subgroup         C2      NOp   2
 Largest concise Abelian subgroup C2      NOp   2
                         Standard orientation:                         
 ---------------------------------------------------------------------
 Center     Atomic      Atomic             Coordinates (Angstroms)
 Number     Number       Type             X           Y           Z
 ---------------------------------------------------------------------
      1          8           0        0.000000    0.713416   -0.040779
      2          8           0       -0.000000   -0.713416   -0.040779
[...]
 Coeff:      0.438D-05-0.841D-05-0.541D-04-0.199D-03-0.711D-04 0.762D-02
 Coeff:     -0.408D-01-0.882D-01 0.112D+01
 Gap=     0.471 Goal=   None    Shift=    0.000
 RMSDP=2.05D-09 MaxDP=3.40D-08 DE=-1.14D-13 OVMax= 5.94D-08

 SCF Done:  E(RwB97XD) =  -151.566947845     A.U. after    9 cycles
            NFock=  9  Conv=0.20D-08     -V/T= 2.0035
 KE= 1.510387473533D+02 PE=-4.335347829959D+02 EE= 9.360839080885D+01
 Leave Link  502 at Sat Aug 10 23:40:48 2019, MaxMem=  1835008000 cpu:              16.7 elap:               2.1
 (Enter /opt/g16/l508.exe)
 QCSCF skips out because SCF is already converged.
 Leave Link  508 at Sat Aug 10 23:40:48 2019, MaxMem=  1835008000 cpu:               0.0 elap:               0.0
 (Enter /opt/g16/l701.exe)
 ... and contract with generalized density number  0.
 Compute integral first derivatives.
 R6Disp: Adding Grimme-D2 dispersion energy 1st derivatives to the gradient.
   2 Symmetry operations used in ECPInt.
 ECPInt:  NShTT=     465 NPrTT=    1428 LenC2=     465 LenP2D=    1306.
 LDataN:  DoStor=T MaxTD1= 7 Len=  274
 Leave Link  701 at Sat Aug 10 23:40:49 2019, MaxMem=  1835008000 cpu:               6.2 elap:               0.8
 (Enter /opt/g16/l702.exe)
 L702 exits ... SP integral derivatives will be done elsewhere.
 Leave Link  702 at Sat Aug 10 23:40:49 2019, MaxMem=  1835008000 cpu:               0.4 elap:               0.0
 (Enter /opt/g16/l703.exe)
 Integral derivatives from FoFJK, PRISM(SPDF).
 Compute integral first derivatives, UseDBF=F ICtDFT=           0.
 Calling FoFJK, ICntrl=      2127 FMM=F ISym2X=1 I1Cent= 0 IOpClX= 0 NMat=1 NMatS=1 NMatT=0.
 FoFJK:  IHMeth= 1 ICntrl=    2127 DoSepK=T KAlg= 0 I1Cent=           0 FoldK=F
 IRaf=         1 NMat=       1 IRICut=       1 DoRegI=T DoRafI=F ISym2E= 1 IDoP0=0 IntGTp=1.
 FoFCou: FMM=F IPFlag=           0 FMFlag=      100000 FMFlg1=         800
         NFxFlg=           0 DoJE=F BraDBF=F KetDBF=F FulRan=T
         wScrn=  0.000000 ICntrl=      2527 IOpCl=  0 I1Cent=           0 NGrid=           0
         NMat0=    1 NMatS0=      1 NMatT0=    0 NMatD0=    1 NMtDS0=    0 NMtDT0=    0
 Petite list used in FoFCou.
 Leave Link  703 at Sat Aug 10 23:40:51 2019, MaxMem=  1835008000 cpu:              14.2 elap:               1.8
 (Enter /opt/g16/l716.exe)
 Dipole        = 2.22044605D-16 6.66133815D-16-7.31605191D-01
 ***** Axes restored to original set *****
 -------------------------------------------------------------------
 Center     Atomic                   Forces (Hartrees/Bohr)
 Number     Number              X              Y              Z
 -------------------------------------------------------------------
      1        8          -0.000014662   -0.000015606   -0.000004455
      2        8           0.000014420    0.000015589   -0.000005239
      3        1           0.000021910   -0.000001579    0.000004304
      4        1          -0.000021667    0.000001596    0.000005390
 -------------------------------------------------------------------
 Cartesian Forces:  Max     0.000021910 RMS     0.000012776
 Leave Link  716 at Sat Aug 10 23:40:51 2019, MaxMem=  1835008000 cpu:               0.3 elap:               0.0
 (Enter /opt/g16/l103.exe)

 GradGradGradGradGradGradGradGradGradGradGradGradGradGradGradGradGradGrad
 Berny optimization.
 Using GEDIIS/GDIIS optimizer.
 FormGI is forming the generalized inverse of G from B-inverse, IUseBI=4.
 Internal  Forces:  Max     0.000030510 RMS     0.000019582
 Search for a local minimum.
 Step number   2 out of a maximum of   20 on scan point    37 out of    37
 All quantities printed in internal units (Hartrees-Bohrs-Radians)
 RMS Force = .21421D-04 SwitMx=.10000D-02 MixMth= 2
 Mixed Optimization -- En-DIIS/RFO-DIIS
 Update second derivatives using D2CorX and points    1    2
 DE= -1.33D-05 DEPred=-1.36D-05 R= 9.81D-01
 TightC=F SS=  1.41D+00  RLast= 1.16D-02 DXNew= 8.4090D-02 3.4885D-02
 Trust test= 9.81D-01 RLast= 1.16D-02 DXMaxT set to 5.00D-02
 The second derivative matrix:
                          R1        R2        R3        A1        A2
           R1           0.35335
           R2          -0.00276   0.52741
           R3          -0.00276  -0.00005   0.52740
           A1           0.07135  -0.00289   0.00060   0.22932
           A2           0.07135   0.00060  -0.00289   0.01997   0.22932
           D1           0.03658  -0.00550  -0.00550   0.01858   0.01858
                          D1
           D1           0.01371
 ITU=  1  0
 Use linear search instead of GDIIS.
     Eigenvalues ---    0.18779   0.20931   0.41467   0.52749   0.52754
     Eigenvalues --- 1000.00000
 RFO step:  Lambda= 0.00000000D+00 EMin= 1.87794056D-01
 Quartic linear search produced a step of -0.01822.
 Iteration  1 RMS(Cart)=  0.00010396 RMS(Int)=  0.00000001
 Iteration  2 RMS(Cart)=  0.00000000 RMS(Int)=  0.00000000
 Iteration  1 RMS(Cart)=  0.00000000 RMS(Int)=  0.00000000
 ITry= 1 IFail=0 DXMaxC= 1.63D-04 DCOld= 1.00D+10 DXMaxT= 5.00D-02 DXLimC= 3.00D+00 Rises=F
 ClnCor:  largest displacement from symmetrization is 7.01D-11 for atom     4.
 Variable       Old X    -DE/DX   Delta X   Delta X   Delta X     New X
                                 (Linear)    (Quad)   (Total)
    R1        2.69229  -0.00000  -0.00006   0.00001  -0.00006   2.69223
    R2        1.81905   0.00001   0.00002   0.00001   0.00003   1.81908
    R3        1.81905   0.00001   0.00002   0.00001   0.00003   1.81908
    A1        1.76619   0.00003   0.00014  -0.00000   0.00014   1.76633
    A2        1.76619   0.00003   0.00014  -0.00000   0.00014   1.76633
    D1        1.99495   0.00000  -0.00000   0.00000  -0.00000   1.99495
         Item               Value     Threshold  Converged?
 Maximum Force            0.000031     0.000450     YES
 RMS     Force            0.000021     0.000300     YES
 Maximum Displacement     0.000163     0.001800     YES
 RMS     Displacement     0.000104     0.001200     YES
 Predicted change in Energy=-4.652938D-09
 Optimization completed.
    -- Stationary point found.
                           ----------------------------
                           !   Optimized Parameters   !
                           ! (Angstroms and Degrees)  !
 --------------------------                            --------------------------
 ! Name  Definition              Value          Derivative Info.                !
 --------------------------------------------------------------------------------
 ! R1    R(1,2)                  1.4247         -DE/DX =    0.0                 !
 ! R2    R(1,3)                  0.9626         -DE/DX =    0.0                 !
 ! R3    R(2,4)                  0.9626         -DE/DX =    0.0                 !
 ! A1    A(2,1,3)              101.1954         -DE/DX =    0.0                 !
 ! A2    A(1,2,4)              101.1954         -DE/DX =    0.0                 !
 ! D1    D(3,1,2,4)            114.3023         -DE/DX =    0.0                 !
 --------------------------------------------------------------------------------
 Lowest energy point so far.  Saving SCF results.
 Summary of Optimized Potential Surface Scan (add -151.0 to energies):
                           1         2         3         4         5
     Eigenvalues --    -0.56695  -0.56683  -0.56654  -0.56616  -0.56579
           R1           1.42468   1.42688   1.42914   1.43126   1.43303
           R2           0.96262   0.96217   0.96180   0.96151   0.96130
           R3           0.96262   0.96217   0.96180   0.96151   0.96130
           A1         101.20300 100.77959 100.40382 100.08202  99.82620
           A2         101.20300 100.77959 100.40382 100.08202  99.82620
           D1         114.30234 124.30234 134.30234 144.30234 154.30234
                           6         7         8         9        10
     Eigenvalues --    -0.56550  -0.56534  -0.56532  -0.56547  -0.56575
           R1           1.43432   1.43431   1.43500   1.43505   1.43325
           R2           0.96117   0.96118   0.96110   0.96110   0.96128
           R3           0.96117   0.96118   0.96110   0.96110   0.96128
           A1          99.64655  99.64900  99.55316  99.54752  99.79836
           A2          99.64655  99.64900  99.55316  99.54752  99.79836
           D1         164.30234 174.30234-175.69766-165.69766-155.69766
                          11        12        13        14        15
     Eigenvalues --    -0.56611  -0.56649  -0.56680  -0.56695  -0.56684
           R1           1.43153   1.42944   1.42719   1.42499   1.42310
           R2           0.96148   0.96176   0.96211   0.96253   0.96298
           R3           0.96148   0.96176   0.96211   0.96253   0.96298
           A1         100.04372 100.35704 100.72538 101.13544 101.57224
           A2         100.04372 100.35704 100.72538 101.13544 101.57224
           D1        -145.69766-135.69766-125.69766-115.69766-105.69766
                          16        17        18        19        20
     Eigenvalues --    -0.56641  -0.56561  -0.56444  -0.56294  -0.56120
           R1           1.42175   1.42111   1.42131   1.42230   1.42399
           R2           0.96339   0.96372   0.96390   0.96390   0.96373
           R3           0.96339   0.96372   0.96390   0.96390   0.96373
           A1         102.02724 102.49126 102.95488 103.42507 103.89504
           A2         102.02724 102.49126 102.95488 103.42507 103.89504
           D1         -95.69766 -85.69766 -75.69766 -65.69766 -55.69766
                          21        22        23        24        25
     Eigenvalues --    -0.55936  -0.55757  -0.55602  -0.55486  -0.55422
           R1           1.42617   1.42852   1.43073   1.43245   1.43342
           R2           0.96341   0.96302   0.96265   0.96235   0.96218
           R3           0.96341   0.96302   0.96265   0.96235   0.96218
           A1         104.35370 104.79240 105.17174 105.46020 105.61977
           A2         104.35370 104.79240 105.17174 105.46020 105.61977
           D1         -45.69766 -35.69766 -25.69766 -15.69766  -5.69766
                          26        27        28        29        30
     Eigenvalues --    -0.55418  -0.55474  -0.55583  -0.55734  -0.55910
           R1           1.43343   1.43265   1.43103   1.42886   1.42649
           R2           0.96219   0.96233   0.96261   0.96297   0.96336
           R3           0.96219   0.96233   0.96261   0.96297   0.96336
           A1         105.61959 105.49161 105.21900 104.85036 104.42036
           A2         105.61959 105.49161 105.21900 104.85036 104.42036
           D1           4.30234  14.30234  24.30234  34.30234  44.30234
                          31        32        33        34        35
     Eigenvalues --    -0.56095  -0.56271  -0.56425  -0.56547  -0.56632
           R1           1.42426   1.42248   1.42139   1.42108   1.42160
           R2           0.96368   0.96388   0.96391   0.96375   0.96345
           R3           0.96368   0.96388   0.96391   0.96375   0.96345
           A1         103.96067 103.49202 103.02008 102.55566 102.09233
           A2         103.96067 103.49202 103.02008 102.55566 102.09233
           D1          54.30234  64.30234  74.30234  84.30234  94.30234
                          36        37
     Eigenvalues --    -0.56680  -0.56695
           R1           1.42288   1.42470
           R2           0.96304   0.96260
           R3           0.96304   0.96260
           A1         101.63386 101.19540
           A2         101.63386 101.19540
           D1         104.30234 114.30234
 Largest change from initial coordinates is atom    4       2.542 Angstoms.
 GradGradGradGradGradGradGradGradGradGradGradGradGradGradGradGradGradGrad

 Leave Link  103 at Sat Aug 10 23:40:51 2019, MaxMem=  1835008000 cpu:               0.0 elap:               0.0
 (Enter /opt/g16/l202.exe)
                          Input orientation:                          
 ---------------------------------------------------------------------
 Center     Atomic      Atomic             Coordinates (Angstroms)
 Number     Number       Type             X           Y           Z
 ---------------------------------------------------------------------
      1          8           0        0.647905    0.280667   -0.272902
      2          8           0       -0.660726   -0.281573   -0.239138
      3          1           0        1.145394   -0.373580    0.228160
      4          1           0       -1.132571    0.374485    0.283880
 ---------------------------------------------------------------------
                    Distance matrix (angstroms):
                    1          2          3          4
     1  O    0.000000
     2  O    1.424699   0.000000
     3  H    0.962600   1.867860   0.000000
     4  H    1.867860   0.962600   2.398297   0.000000
 Stoichiometry    H2O2
 Framework group  C2[X(H2O2)]
 Deg. of freedom     4
 Full point group                 C2      NOp   2
 RotChk:  IX=2 Diff= 8.03D-16
 Largest Abelian subgroup         C2      NOp   2
 Largest concise Abelian subgroup C2      NOp   2
                         Standard orientation:                         
 ---------------------------------------------------------------------
 Center     Atomic      Atomic             Coordinates (Angstroms)
 Number     Number       Type             X           Y           Z
 ---------------------------------------------------------------------
      1          8           0        0.000000    0.712350    0.056911
      2          8           0       -0.000000   -0.712350    0.056911
      3          1           0       -0.793296    0.899244   -0.455290
      4          1           0        0.793296   -0.899244   -0.455290
 ---------------------------------------------------------------------
 Rotational constants (GHZ):         307.7308224          27.3413583          26.4162050
 Leave Link  202 at Sat Aug 10 23:40:51 2019, MaxMem=  1835008000 cpu:               0.0 elap:               0.0
 (Enter /opt/g16/l601.exe)
 Copying SCF densities to generalized density rwf, IOpCl= 0 IROHF=0.

 **********************************************************************

            Population analysis using the SCF Density.

 **********************************************************************

 Orbital symmetries:
       Occupied  (A) (B) (A) (B) (A) (B) (A) (A) (B)
       Virtual   (B) (A) (B) (A) (B) (B) (A) (A) (B) (A) (B) (A)
                 (B) (B) (A) (A) (B) (B) (A) (A) (A) (B) (B) (A)
                 (B) (B) (A) (B) (A) (A) (B) (A) (B) (A) (B) (A)
                 (B) (A) (B) (A) (A) (B) (A) (B) (B) (A) (B) (A)
                 (A) (B) (B) (A) (A) (B) (A) (B) (B) (A) (B) (A)
                 (B) (A) (B) (A) (B)
 The electronic state is 1-A.
 Alpha  occ. eigenvalues --  -19.30972 -19.30968  -1.23649  -1.00016  -0.63254
 Alpha  occ. eigenvalues --   -0.59077  -0.51872  -0.41249  -0.37139
 Alpha virt. eigenvalues --    0.09992   0.11065   0.17030   0.46787   0.46947
 Alpha virt. eigenvalues --    0.49019   0.50067   0.54425   0.57003   0.59360
 Alpha virt. eigenvalues --    0.65122   0.70815   0.79935   1.15417   1.20857
 Alpha virt. eigenvalues --    1.32432   1.37882   1.66610   1.67318   1.79724
 Alpha virt. eigenvalues --    1.84169   1.91215   1.99611   2.10802   2.20232
 Alpha virt. eigenvalues --    2.25906   2.26736   2.35671   2.41811   2.58564
 Alpha virt. eigenvalues --    2.60772   2.69099   2.78699   2.80921   2.89827
 Alpha virt. eigenvalues --    2.93595   3.77860   3.82715   4.18067   4.82015
 Alpha virt. eigenvalues --    4.89965   4.91109   4.98918   5.12096   5.38371
 Alpha virt. eigenvalues --    5.46504   5.51261   5.53657   5.92048   5.93476
 Alpha virt. eigenvalues --    6.14023   6.23316   6.37550   6.40234   6.40750
 Alpha virt. eigenvalues --    6.45223   6.49503   6.78823   6.85935   7.08325
 Alpha virt. eigenvalues --    7.13648   7.32798   8.13656  43.25019  43.75064
          Condensed to atoms (all electrons):
               1          2          3          4
     1  O    8.047194   0.029290   0.288750  -0.030270
     2  O    0.029290   8.047194  -0.030270   0.288750
     3  H    0.288750  -0.030270   0.406284   0.000271
     4  H   -0.030270   0.288750   0.000271   0.406284
 Mulliken charges:
               1
     1  O   -0.334964
     2  O   -0.334964
     3  H    0.334964
     4  H    0.334964
 Sum of Mulliken charges =  -0.00000
 Mulliken charges with hydrogens summed into heavy atoms:
               1
     1  O   -0.000000
     2  O    0.000000
 Electronic spatial extent (au):  <R**2>=             65.1281
 Charge=              0.0000 electrons
 Dipole moment (field-independent basis, Debye):
    X=             -0.0000    Y=             -0.0000    Z=             -1.8596  Tot=              1.8596
 Quadrupole moment (field-independent basis, Debye-Ang):
   XX=             -9.5213   YY=            -11.3268   ZZ=            -11.7000
   XY=             -3.0533   XZ=             -0.0000   YZ=              0.0000
 Traceless Quadrupole moment (field-independent basis, Debye-Ang):
   XX=              1.3281   YY=             -0.4774   ZZ=             -0.8507
   XY=             -3.0533   XZ=             -0.0000   YZ=              0.0000
 Octapole moment (field-independent basis, Debye-Ang**2):
  XXX=              0.0000  YYY=              0.0000  ZZZ=             -1.2478  XYY=             -0.0000
  XXY=             -0.0000  XXZ=             -1.4573  XZZ=              0.0000  YZZ=              0.0000
  YYZ=             -2.0175  XYZ=              1.6967
 Hexadecapole moment (field-independent basis, Debye-Ang**3):
 XXXX=            -10.1143 YYYY=            -43.6947 ZZZZ=            -10.8075 XXXY=             -0.4690
 XXXZ=             -0.0000 YYYX=             -1.3731 YYYZ=              0.0000 ZZZX=             -0.0000
 ZZZY=              0.0000 XXYY=             -8.1264 XXZZ=             -3.1809 YYZZ=             -9.6950
 XXYZ=              0.0000 YYXZ=             -0.0000 ZZXY=             -0.1022
 N-N= 3.732069698862D+01 E-N=-4.335347829788D+02  KE= 1.510387473533D+02
 Symmetry A    KE= 7.736678461233D+01
 Symmetry B    KE= 7.367196274099D+01
 No NMR shielding tensors so no spin-rotation constants.
 Leave Link  601 at Sat Aug 10 23:40:51 2019, MaxMem=  1835008000 cpu:               2.1 elap:               0.3
 (Enter /opt/g16/l9999.exe)

 Test job not archived.
 1\1\GINC-NODE01\Scan\RwB97XD\def2TZVP\H2O2\ALONGD\10-Aug-2019\0\\#P op
 t=(modredundant, calcfc, noeigentest, maxStep=5) scf=(tight, direct) i
 ntegral=(grid=ultrafine, Acc2E=12) guess=mix wb97xd/def2tzvp scf=xqc i
 op(2/9=2000)\\name\\0,1\O,0.6479045155,0.2806672303,-0.2729018593\O,-0
 .6607260753,-0.2815728499,-0.2391384459\H,1.1453936512,-0.3735801799,0
 .2281599452\H,-1.1325710998,0.3744847995,0.2838803675\\Version=ES64L-G
 16RevB.01\State=1-A\HF=-151.5669481,-151.5668302,-151.5665388,-151.566
 1638,-151.5657945,-151.5655018,-151.5653351,-151.5653248,-151.5654695,
 -151.5657476,-151.5661101,-151.5664894,-151.5667978,-151.5669453,-151.
 5668423,-151.5664121,-151.5656136,-151.5644423,-151.5629409,-151.56120
 26,-151.5593583,-151.5575722,-151.5560179,-151.5548578,-151.554221,-15
 1.5541784,-151.5547354,-151.5558288,-151.5573375,-151.5591017,-151.560
 948,-151.5627101,-151.564251,-151.565472,-151.5663235,-151.5668032,-15
 1.5669478\RMSD=4.041e-09,2.129e-09,1.990e-09,9.371e-09,7.621e-09,5.525
 e-09,5.592e-09,5.047e-09,4.935e-09,4.780e-09,6.855e-09,8.555e-09,9.544
 e-09,9.785e-09,9.174e-09,7.974e-09,6.617e-09,6.153e-09,7.072e-09,7.837
 e-09,7.724e-09,7.081e-09,5.919e-09,4.368e-09,7.203e-09,2.764e-09,6.244
 e-09,4.277e-09,6.047e-09,7.398e-09,8.098e-09,7.897e-09,6.887e-09,6.186
 e-09,7.183e-09,8.924e-09,2.049e-09\PG=C02 [X(H2O2)]\\@


 TIMES HAVE CHANGED. IN THE BIBLE WHEN AN ASS
 SPOKE IT WAS CONSIDERED A MIRACLE.
 Job cpu time:       0 days  0 hours 51 minutes 16.8 seconds.
 Elapsed time:       0 days  0 hours  6 minutes 27.8 seconds.
 File lengths (MBytes):  RWF=     10 Int=      0 D2E=      0 Chk=      3 Scr=      1
 Normal termination of Gaussian 16 at Sat Aug 10 23:40:51 2019.
