 Entering Gaussian System, Link 0=/Local/ce_dana/g09/g09
 Initial command:
 /Local/ce_dana/g09/l1.exe "/storage/ce_dana/alongd/scratch/g09/Gau-272176.inp" -scrdir="/storage/ce_dana/alongd/scratch/g09/"
 Entering Link 1 = /Local/ce_dana/g09/l1.exe PID=    272177.
  
 Copyright (c) 1988,1990,1992,1993,1995,1998,2003,2009,2013,
            Gaussian, Inc.  All Rights Reserved.
  
 This is part of the Gaussian(R) 09 program.  It is based on
 the Gaussian(R) 03 system (copyright 2003, Gaussian, Inc.),
 the Gaussian(R) 98 system (copyright 1998, Gaussian, Inc.),
 the Gaussian(R) 94 system (copyright 1995, Gaussian, Inc.),
 the Gaussian 92(TM) system (copyright 1992, Gaussian, Inc.),
 the Gaussian 90(TM) system (copyright 1990, Gaussian, Inc.),
 the Gaussian 88(TM) system (copyright 1988, Gaussian, Inc.),
 the Gaussian 86(TM) system (copyright 1986, Carnegie Mellon
 University), and the Gaussian 82(TM) system (copyright 1983,
 Carnegie Mellon University). Gaussian is a federally registered
 trademark of Gaussian, Inc.
  
 This software contains proprietary and confidential information,
 including trade secrets, belonging to Gaussian, Inc.
  
 This software is provided under written license and may be
 used, copied, transmitted, or stored only in accord with that
 written license.
  
 The following legend is applicable only to US Government
 contracts under FAR:
  
                    RESTRICTED RIGHTS LEGEND
  
 Use, reproduction and disclosure by the US Government is
 subject to restrictions as set forth in subparagraphs (a)
 and (c) of the Commercial Computer Software - Restricted
 Rights clause in FAR 52.227-19.
  
 Gaussian, Inc.
 340 Quinnipiac St., Bldg. 40, Wallingford CT 06492
  
  
 ---------------------------------------------------------------
 Warning -- This program may not be used in any manner that
 competes with the business of Gaussian, Inc. or will provide
 assistance to any competitor of Gaussian, Inc.  The licensee
 of this program is prohibited from giving any competitor of
 Gaussian, Inc. access to this program.  By using this program,
 the user acknowledges that Gaussian, Inc. is engaged in the
 business of creating and licensing software in the field of
 computational chemistry and represents and warrants to the
 licensee that it is not a competitor of Gaussian, Inc. and that
 it will not use this program in any manner prohibited above.
 ---------------------------------------------------------------
  

 Cite this work as:
 Gaussian 09, Revision D.01,
 M. J. Frisch, G. W. Trucks, H. B. Schlegel, G. E. Scuseria, 
 M. A. Robb, J. R. Cheeseman, G. Scalmani, V. Barone, B. Mennucci, 
 G. A. Petersson, H. Nakatsuji, M. Caricato, X. Li, H. P. Hratchian, 
 A. F. Izmaylov, J. Bloino, G. Zheng, J. L. Sonnenberg, M. Hada, 
 M. Ehara, K. Toyota, R. Fukuda, J. Hasegawa, M. Ishida, T. Nakajima, 
 Y. Honda, O. Kitao, H. Nakai, T. Vreven, J. A. Montgomery, Jr., 
 J. E. Peralta, F. Ogliaro, M. Bearpark, J. J. Heyd, E. Brothers, 
 K. N. Kudin, V. N. Staroverov, T. Keith, R. Kobayashi, J. Normand, 
 K. Raghavachari, A. Rendell, J. C. Burant, S. S. Iyengar, J. Tomasi, 
 M. Cossi, N. Rega, J. M. Millam, M. Klene, J. E. Knox, J. B. Cross, 
 V. Bakken, C. Adamo, J. Jaramillo, R. Gomperts, R. E. Stratmann, 
 O. Yazyev, A. J. Austin, R. Cammi, C. Pomelli, J. W. Ochterski, 
 R. L. Martin, K. Morokuma, V. G. Zakrzewski, G. A. Voth, 
 P. Salvador, J. J. Dannenberg, S. Dapprich, A. D. Daniels, 
 O. Farkas, J. B. Foresman, J. V. Ortiz, J. Cioslowski, 
 and D. J. Fox, Gaussian, Inc., Wallingford CT, 2013.
 
 ******************************************
 Gaussian 09:  ES64L-G09RevD.01 24-Apr-2013
                12-Nov-2022 
 ******************************************
 %chk=check.chk
 %mem=7168mb
 %NProcShared=10
 Will use up to   10 processors via shared memory.
 ----------------------------------------------------------------------
 #P guess=read ub2plypd3/def2tzvp freq IOp(7/33=1) scf=(tight, direct) 
 integral=(grid=ultrafine, Acc2E=12) IOp(2/9=2000) scf=xqc
 ----------------------------------------------------------------------
 1/10=4,30=1,38=1/1,3;
 2/9=2000,12=2,17=6,18=5,40=1/2;
 3/5=44,7=101,11=2,16=1,25=1,30=1,71=2,74=-60,75=-5,116=2,140=1/1,2,3;
 4/5=1/1;
 5/5=2,8=3,13=1,32=2,38=6,87=12,98=1/2,8;
 8/6=3,8=1,10=1,19=11,30=-1,87=12/1;
 9/15=3,16=-3,87=12/6;
 11/6=1,8=1,15=11,17=12,24=-1,27=1,28=-2,29=300,32=6,42=3,87=12/1,2,10;
 10/6=2,21=1,87=12/2;
 8/6=4,8=1,10=1,19=11,30=-1,87=12/11,4;
 10/5=1,20=4,87=12/2;
 11/12=2,14=11,16=1,17=2,28=-2,42=3,87=12/2,10,12;
 6/7=2,8=2,9=2,10=2/1;
 7/8=1,10=1,12=2,25=1,33=1,44=2,87=12/1,2,3,16;
 1/10=4,30=1/3;
 99//99;
 Leave Link    1 at Sat Nov 12 22:08:29 2022, MaxMem=   939524096 cpu:         0.0
 (Enter /Local/ce_dana/g09/l101.exe)
 ----
 C2H5
 ----
 Symbolic Z-matrix:
 Charge =  0 Multiplicity = 2
 C                     0.85775   0.0568    0.08477 
 C                    -0.62003  -0.03591  -0.01801 
 H                     1.46268  -0.83108   0.19061 
 H                     1.36743   0.99315  -0.08534 
 H                    -1.01534  -0.86222   0.57441 
 H                    -0.94582  -0.20947  -1.05288 
 H                    -1.10649   0.88365   0.3103 
 
 NAtoms=      7 NQM=        7 NQMF=       0 NMMI=      0 NMMIF=      0
                NMic=       0 NMicF=      0.
                    Isotopes and Nuclear Properties:
 (Nuclear quadrupole moments (NQMom) in fm**2, nuclear magnetic moments (NMagM)
  in nuclear magnetons)

  Atom         1           2           3           4           5           6           7
 IAtWgt=          12          12           1           1           1           1           1
 AtmWgt=  12.0000000  12.0000000   1.0078250   1.0078250   1.0078250   1.0078250   1.0078250
 NucSpn=           0           0           1           1           1           1           1
 AtZEff=   0.0000000   0.0000000   0.0000000   0.0000000   0.0000000   0.0000000   0.0000000
 NQMom=    0.0000000   0.0000000   0.0000000   0.0000000   0.0000000   0.0000000   0.0000000
 NMagM=    0.0000000   0.0000000   2.7928460   2.7928460   2.7928460   2.7928460   2.7928460
 AtZNuc=   6.0000000   6.0000000   1.0000000   1.0000000   1.0000000   1.0000000   1.0000000
 Leave Link  101 at Sat Nov 12 22:08:29 2022, MaxMem=   939524096 cpu:         0.1
 (Enter /Local/ce_dana/g09/l103.exe)

 GradGradGradGradGradGradGradGradGradGradGradGradGradGradGradGradGradGrad
 Berny optimization.
 Initialization pass.
 Trust Radius=3.00D-01 FncErr=1.00D-07 GrdErr=1.00D-07
 Number of steps in this run=      2 maximum allowed number of steps=      2.
 GradGradGradGradGradGradGradGradGradGradGradGradGradGradGradGradGradGrad

 Leave Link  103 at Sat Nov 12 22:08:29 2022, MaxMem=   939524096 cpu:         0.0
 (Enter /Local/ce_dana/g09/l202.exe)
                          Input orientation:                          
 ---------------------------------------------------------------------
 Center     Atomic      Atomic             Coordinates (Angstroms)
 Number     Number       Type             X           Y           Z
 ---------------------------------------------------------------------
      1          6           0        0.857752    0.056797    0.084773
      2          6           0       -0.620031   -0.035907   -0.018006
      3          1           0        1.462675   -0.831079    0.190609
      4          1           0        1.367430    0.993146   -0.085338
      5          1           0       -1.015338   -0.862219    0.574409
      6          1           0       -0.945824   -0.209467   -1.052875
      7          1           0       -1.106492    0.883650    0.310302
 ---------------------------------------------------------------------
                    Distance matrix (angstroms):
                    1          2          3          4          5
     1  C    0.000000
     2  C    1.484251   0.000000
     3  H    1.079563   2.239081   0.000000
     4  H    1.079564   2.239081   1.847435   0.000000
     5  H    2.143082   1.090878   2.507752   3.091153   0.000000
     6  H    2.148959   1.098735   2.780921   2.780926   1.754700
     7  H    2.143083   1.090878   3.091155   2.507750   1.768084
                    6          7
     6  H    0.000000
     7  H    1.754700   0.000000
 Stoichiometry    C2H5(2)
 Framework group  C1[X(C2H5)]
 Deg. of freedom    15
 Full point group                 C1      NOp   1
 Largest Abelian subgroup         C1      NOp   1
 Largest concise Abelian subgroup C1      NOp   1
                         Standard orientation:                         
 ---------------------------------------------------------------------
 Center     Atomic      Atomic             Coordinates (Angstroms)
 Number     Number       Type             X           Y           Z
 ---------------------------------------------------------------------
      1          6           0       -0.791875   -0.000000   -0.020237
      2          6           0        0.692256    0.000000   -0.001425
      3          1           0       -1.346897   -0.923717    0.044220
      4          1           0       -1.346897    0.923718    0.044220
      5          1           0        1.102671   -0.884038   -0.491375
      6          1           0        1.086163   -0.000007    1.024272
      7          1           0        1.102672    0.884045   -0.491363
 ---------------------------------------------------------------------
 Rotational constants (GHZ):    104.2648231     22.8553571     21.1851944
 Leave Link  202 at Sat Nov 12 22:08:29 2022, MaxMem=   939524096 cpu:         0.0
 (Enter /Local/ce_dana/g09/l301.exe)
 Standard basis: def2TZVP (5D, 7F)
 Ernie: Thresh=  0.10000D-02 Tol=  0.10000D-05 Strict=F.
 There are   102 symmetry adapted cartesian basis functions of A   symmetry.
 There are    92 symmetry adapted basis functions of A   symmetry.
    92 basis functions,   142 primitive gaussians,   102 cartesian basis functions
     9 alpha electrons        8 beta electrons
       nuclear repulsion energy        37.0384869883 Hartrees.
 IExCor=  419 DFT=T Ex+Corr=B2PLYPD3 ExCW=0 ScaHFX=  0.530000
 ScaDFX=  0.470000  0.470000  0.730000  0.730000 ScalE2=  0.270000  0.270000
 IRadAn=      5 IRanWt=     -1 IRanGd=            0 ICorTp=0 IEmpDi=141
 NAtoms=    7 NActive=    7 NUniq=    7 SFac= 1.00D+00 NAtFMM=   60 NAOKFM=F Big=F
 Integral buffers will be    131072 words long.
 Raffenetti 2 integral format.
 Two-electron integral symmetry is turned on.
 R6Disp:  Grimme-D3(BJ) Dispersion energy=       -0.0019905358 Hartrees.
 Nuclear repulsion after empirical dispersion term =       37.0364964526 Hartrees.
 Leave Link  301 at Sat Nov 12 22:08:29 2022, MaxMem=   939524096 cpu:         0.1
 (Enter /Local/ce_dana/g09/l302.exe)
 NPDir=0 NMtPBC=     1 NCelOv=     1 NCel=       1 NClECP=     1 NCelD=      1
         NCelK=      1 NCelE2=     1 NClLst=     1 CellRange=     0.0.
 One-electron integrals computed using PRISM.
   1 Symmetry operations used in ECPInt.
 ECPInt:  NShTT=     903 NPrTT=    2544 LenC2=     903 LenP2D=    2343.
 LDataN:  DoStor=T MaxTD1= 6 Len=  172
 NBasis=    92 RedAO= T EigKep=  5.67D-04  NBF=    92
 NBsUse=    92 1.00D-06 EigRej= -1.00D+00 NBFU=    92
 Precomputing XC quadrature grid using
 IXCGrd= 4 IRadAn=           5 IRanWt=          -1 IRanGd=           0 AccXCQ= 0.00D+00.
 Generated NRdTot=       0 NPtTot=           0 NUsed=           0 NTot=          32
 NSgBfM=   102   102   102   102   102 MxSgAt=     7 MxSgA2=     7.
 Leave Link  302 at Sat Nov 12 22:08:30 2022, MaxMem=   939524096 cpu:         1.4
 (Enter /Local/ce_dana/g09/l303.exe)
 DipDrv:  MaxL=1.
 Leave Link  303 at Sat Nov 12 22:08:30 2022, MaxMem=   939524096 cpu:         0.1
 (Enter /Local/ce_dana/g09/l401.exe)
 Initial guess from the checkpoint file:  "check.chk"
 B after Tr=     0.000000    0.000000    0.000000
         Rot=   -0.000000    0.000000    0.000000    1.000000 Ang= 180.00 deg.
 Guess basis will be translated and rotated to current coordinates.
 JPrj=2 DoOrth=T DoCkMO=T.
 Initial guess <Sx>= 0.0000 <Sy>= 0.0000 <Sz>= 0.5000 <S**2>= 0.7566 S= 0.5033
 Leave Link  401 at Sat Nov 12 22:08:30 2022, MaxMem=   939524096 cpu:         0.4
 (Enter /Local/ce_dana/g09/l502.exe)
 UHF open shell SCF:
 Using DIIS extrapolation, IDIIS=  1040.
 Integral symmetry usage will be decided dynamically.
 Keep R1 and R2 ints in memory in canonical form, NReq=20334267.
 IVT=       38934 IEndB=       38934 NGot=   939524096 MDV=   921179601
 LenX=   921179601 LenY=   921168756
 Requested convergence on RMS density matrix=1.00D-08 within  64 cycles.
 Requested convergence on MAX density matrix=1.00D-06.
 Requested convergence on             energy=1.00D-06.
 No special actions if energy rises.
 FoFCou: FMM=F IPFlag=           0 FMFlag=           0 FMFlg1=           0
         NFxFlg=           0 DoJE=F BraDBF=F KetDBF=F FulRan=T
         wScrn=  0.000000 ICntrl=     600 IOpCl=  0 I1Cent=           0 NGrid=           0
         NMat0=    1 NMatS0=   4278 NMatT0=    0 NMatD0=    1 NMtDS0=    0 NMtDT0=    0
 Symmetry not used in FoFCou.

 Cycle   1  Pass 1  IDiag  1:
 E= -78.9972924004687    
 DIIS: error= 5.54D-08 at cycle   1 NSaved=   1.
 NSaved= 1 IEnMin= 1 EnMin= -78.9972924004687     IErMin= 1 ErrMin= 5.54D-08
 ErrMax= 5.54D-08  0.00D+00 EMaxC= 1.00D-01 BMatC= 1.15D-12 BMatP= 1.15D-12
 IDIUse=1 WtCom= 1.00D+00 WtEn= 0.00D+00
 Coeff-Com:  0.100D+01
 Coeff:      0.100D+01
 Gap=     0.355 Goal=   None    Shift=    0.000
 Gap=     0.436 Goal=   None    Shift=    0.000
 RMSDP=5.47D-09 MaxDP=8.87D-08              OVMax= 2.24D-07

 SCF Done:  E(UB2PLYPD3) =  -78.9972924005     A.U. after    1 cycles
            NFock=  1  Conv=0.55D-08     -V/T= 2.0036
 <Sx>= 0.0000 <Sy>= 0.0000 <Sz>= 0.5000 <S**2>= 0.7566 S= 0.5033
 <L.S>=  0.00000000000    
 KE= 7.871594552849D+01 PE=-2.568967362890D+02 EE= 6.214700190742D+01
 Annihilation of the first spin contaminant:
 S**2 before annihilation     0.7566,   after     0.7500
 Leave Link  502 at Sat Nov 12 22:08:31 2022, MaxMem=   939524096 cpu:         6.6
 (Enter /Local/ce_dana/g09/l508.exe)
 QCSCF skips out because SCF is already converged.
 Leave Link  508 at Sat Nov 12 22:08:31 2022, MaxMem=   939524096 cpu:         0.0
 (Enter /Local/ce_dana/g09/l801.exe)
 DoSCS=T DFT=T ScalE2(SS,OS)=  0.270000  0.270000
 ExpMin= 9.52D-02 ExpMax= 1.36D+04 ExpMxC= 4.63D+02 IAcc=3 IRadAn=         5 AccDes= 0.00D+00
 HarFok:  IExCor=  205 AccDes= 0.00D+00 IRadAn=         5 IDoV=-2 UseB2=F ITyADJ=14
 ICtDFT= 12500011 ScaDFX=  1.000000  1.000000  1.000000  1.000000
 Largest valence mixing into a core orbital is  8.95D-05
 Largest core mixing into a valence orbital is  1.60D-05
 Largest valence mixing into a core orbital is  1.06D-04
 Largest core mixing into a valence orbital is  1.93D-05
 Range of M.O.s used for correlation:     3    92
 NBasis=    92 NAE=     9 NBE=     8 NFC=     2 NFV=     0
 NROrb=     90 NOA=     7 NOB=     6 NVA=    83 NVB=    84

 **** Warning!!: The largest alpha MO coefficient is  0.18545804D+02


 **** Warning!!: The largest beta MO coefficient is  0.18950097D+02

 Leave Link  801 at Sat Nov 12 22:08:31 2022, MaxMem=   939524096 cpu:         0.4
 (Enter /Local/ce_dana/g09/l906.exe)
 DoSCS=T DFT=T ScalE2(SS,OS)=  0.270000  0.270000
 Frozen-core derivative calculation, NFC=   2 NFV=   0.
 FulOut=F Deriv=T AODrv=T NAtomX=     7
   MMem=           0  MDisk=           7 MDiskD=           7
  W3Min=      168912 MinDsk=      451523 NBas6D=         102
 NBas2D=        5436    NTT=        5253    LW2=     7400000
    MDV=   939369356 MDiskM=       45949 NBas2p=        5435
 Disk-based method using ON**2 memory for  7 occupieds at a time.
 Permanent disk used for amplitudes=      722100 words.
 Estimated scratch disk usage=    13809128 words.
 IMap=   1   2   3   4   5   6   7   8   9
 Actual    scratch disk usage=    13809128 words.
 JobTyp=2 Pass  1:  I=   3 to   9 NPSUse= 10 ParTrn=T ParDer=T DoDerP=T.
 (rs|ai) integrals will be sorted in core.
 IMap=   1   2   3   4   5   6   7   8
 Actual    scratch disk usage=    13809128 words.
 JobTyp=3 Pass  1:  I=   3 to   8 NPSUse= 10 ParTrn=T ParDer=T DoDerP=T.
 (rs|ai) integrals will be sorted in core.
 Spin components of T(2) and E(2):
     alpha-alpha T2 =       0.2056110052D-01 E2=     -0.1326571113D-01
     alpha-beta  T2 =       0.1156957192D+00 E2=     -0.8114443136D-01
     beta-beta   T2 =       0.1419062980D-01 E2=     -0.9035462663D-02
 The integrals were generated   2 times.
 E2(B2PLYPD3) =    -0.1034456052D+00 E(B2PLYPD3) =    -0.79100738005622D+02
 Leave Link  906 at Sat Nov 12 22:09:00 2022, MaxMem=   939524096 cpu:       288.2
 (Enter /Local/ce_dana/g09/l1101.exe)
 Using compressed Sx but separate Hx and Fx, NAtomX=     7.
 Will process      8 centers per pass.
   1 Symmetry operations used in ECPInt.
 ECPInt:  NShTT=     903 NPrTT=    2544 LenC2=     903 LenP2D=    2343.
 LDataN:  DoStor=T MaxTD1= 7 Len=  274
 R6Disp: Adding Grimme-D3(BJ) dispersion energy 1st derivatives to the gradient.
 Leave Link 1101 at Sat Nov 12 22:09:00 2022, MaxMem=   939524096 cpu:         4.4
 (Enter /Local/ce_dana/g09/l1102.exe)
 Leave Link 1102 at Sat Nov 12 22:09:00 2022, MaxMem=   939524096 cpu:         0.0
 (Enter /Local/ce_dana/g09/l1110.exe)
 Forming Gx(P) for the SCF density, NAtomX=     7.
 Integral derivatives from FoFJK, PRISM(SPDF).
 Do as many integral derivatives as possible in FoFJK.
 G2DrvN: MDV=     939523936.
 G2DrvN: will do     8 centers at a time, making    1 passes.
 Calling FoFCou, ICntrl=  3107 FMM=F I1Cent=   0 AccDes= 1.00D-12.
 FoFJK:  IHMeth= 1 ICntrl=    3107 DoSepK=F KAlg= 0 I1Cent=   0 FoldK=F
 IRaf=         0 NMat=   1 IRICut=       1 DoRegI=T DoRafI=F ISym2E= 0.
 FoFCou: FMM=F IPFlag=           0 FMFlag=      100000 FMFlg1=           0
         NFxFlg=           0 DoJE=F BraDBF=F KetDBF=F FulRan=T
         wScrn=  0.000000 ICntrl=    3107 IOpCl=  1 I1Cent=           0 NGrid=           0
         NMat0=    1 NMatS0=      1 NMatT0=    0 NMatD0=    1 NMtDS0=    0 NMtDT0=    0
 Symmetry not used in FoFCou.
 End of G2Drv F.D. properties file   721 does not exist.
 End of G2Drv F.D. properties file   722 does not exist.
 End of G2Drv F.D. properties file   788 does not exist.
 Leave Link 1110 at Sat Nov 12 22:09:12 2022, MaxMem=   939524096 cpu:       116.7
 (Enter /Local/ce_dana/g09/l1002.exe)
 Minotr:  UHF open shell wavefunction.
          IDoAtm=1111111
          Frozen-core window.
          Direct CPHF calculation.
          Differentiating once with respect to electric field.
                with respect to dipole field.
          Differentiating once with respect to nuclear coordinates.
          Requested convergence is 1.0D-08 RMS, and 1.0D-07 maximum.
          Secondary convergence is 1.0D-12 RMS, and 1.0D-12 maximum.
          NewPWx=T KeepS1=T KeepF1=T KeepIn=T MapXYZ=F SortEE=F KeepMc=T.
          MDV=     939523842 using IRadAn=       1.
 Generate precomputed XC quadrature information.
 Keep R1 and R2 ints in memory in canonical form, NReq=20314765.
 FoFCou: FMM=F IPFlag=           0 FMFlag=           0 FMFlg1=           0
         NFxFlg=           0 DoJE=F BraDBF=F KetDBF=F FulRan=T
         wScrn=  0.000000 ICntrl=     600 IOpCl=  0 I1Cent=           0 NGrid=           0
         NMat0=    1 NMatS0=   4278 NMatT0=    0 NMatD0=    1 NMtDS0=    0 NMtDT0=    0
 Symmetry not used in FoFCou.
          Solving linear equations simultaneously, MaxMat=       0.
          There are    24 degrees of freedom in the 1st order CPHF.  IDoFFX=6 NUNeed=    24.
     21 vectors produced by pass  0 Test12= 5.91D-15 4.17D-09 XBig12= 2.04D+01 1.77D+00.
 AX will form    21 AO Fock derivatives at one time.
     21 vectors produced by pass  1 Test12= 5.91D-15 4.17D-09 XBig12= 8.11D-01 3.72D-01.
     21 vectors produced by pass  2 Test12= 5.91D-15 4.17D-09 XBig12= 1.62D-02 3.51D-02.
     21 vectors produced by pass  3 Test12= 5.91D-15 4.17D-09 XBig12= 1.75D-04 2.86D-03.
     21 vectors produced by pass  4 Test12= 5.91D-15 4.17D-09 XBig12= 1.91D-06 3.65D-04.
     21 vectors produced by pass  5 Test12= 5.91D-15 4.17D-09 XBig12= 2.13D-08 3.83D-05.
     15 vectors produced by pass  6 Test12= 5.91D-15 4.17D-09 XBig12= 7.72D-11 2.09D-06.
      7 vectors produced by pass  7 Test12= 5.91D-15 4.17D-09 XBig12= 5.74D-13 1.54D-07.
      1 vectors produced by pass  8 Test12= 5.91D-15 4.17D-09 XBig12= 3.48D-15 1.07D-08.
 InvSVY:  IOpt=1 It=  1 EMax= 7.11D-15
 Solved reduced A of dimension   149 with    24 vectors.
 FullF1:  Do perturbations    1 to    24.
 Saving first derivative matrices.
 End of Minotr F.D. properties file   721 does not exist.
 End of Minotr F.D. properties file   722 does not exist.
 End of Minotr F.D. properties file   788 does not exist.
 Leave Link 1002 at Sat Nov 12 22:09:32 2022, MaxMem=   939524096 cpu:       191.0
 (Enter /Local/ce_dana/g09/l811.exe)
 MDV=   939524096.
 DoSCS=T DFT=T ScalE2(SS,OS)=  0.270000  0.270000
 Form MO integral derivatives with frozen-active canonical formalism.
 MOERI=1 MOERIx=1 NAtoms=     7 NAtomX=     7.
 Discarding MO integrals.
 MO basis two electron integral derivatives will not be stored on disk.
 IAlg= 3 DoFC=T DoPWx=T Debug=F.
 Frozen-core window:  NFC=   2 NFV=   0.
 Reordered first order wavefunction length =      2952255
 In DefCFB: NBatch=  1 ICI=  9 ICA= 84 LFMax= 42
            Large arrays: LIAPS=    53263584 LIARS=    38864448 words.
 In StABat: MaxSiz= 36 MinSiz= 30 NAtomB=  3
 DoIAMN: NPSUse= 10.
 In DefCFB: NBatch=  1 ICI=  9 ICA= 84 LFMax= 42
            Large arrays: LIAPS=    53263584 LIARS=    38864448 words.
 In StABat: MaxSiz= 36 MinSiz= 30 NAtomB=  3
 Leave Link  811 at Sat Nov 12 22:09:53 2022, MaxMem=   939524096 cpu:        71.9
 (Enter /Local/ce_dana/g09/l804.exe)
 Frozen-core window:  NFC=   2 NFV=   0.
 Open-shell transformation, MDV=   939524096 ITran=4 ISComp=1.
 Semi-Direct transformation.
 ModeAB=           2 MOrb=             9 LenV=     938941508
 LASXX=      3250116 LTotXX=     3250116 LenRXX=     3250116
 LTotAB=     3388176 MaxLAS=     4349484 LenRXY=     4349484
 NonZer=     6500232 LenScr=    10493952 LnRSAI=           0
 LnScr1=           0 LExtra=           0 Total=     18093552
 MaxDsk=          -1 SrtSym=           F ITran=            4
 DoSDTr:  NPSUse= 10
 JobTyp=1 Pass  1:  I=   1 to   9.
 (rs|ai) integrals will be sorted in core.
 Complete sort for first half transformation.
 First half transformation complete.
 Complete sort for second half transformation.
 Second half transformation complete.
 ModeAB=           2 MOrb=             8 LenV=     938941508
 LASXX=      2911006 LTotXX=     2911006 LenRXX=     3866208
 LTotAB=     2468088 MaxLAS=     3866208 LenRXY=     2468088
 NonZer=     5822012 LenScr=     9458176 LnRSAI=           0
 LnScr1=           0 LExtra=           0 Total=     15792472
 MaxDsk=          -1 SrtSym=           F ITran=            4
 DoSDTr:  NPSUse= 10
 JobTyp=2 Pass  1:  I=   1 to   8.
 (rs|ai) integrals will be sorted in core.
 Complete sort for first half transformation.
 First half transformation complete.
 Complete sort for second half transformation.
 Second half transformation complete.
 SymMOI:  orbitals are not symmetric.
 DoSCS=T DFT=T ScalE2(SS,OS)=  0.270000  0.270000
 Spin components of T(2) and E(2):
     alpha-alpha T2 =       0.2056110052D-01 E2=     -0.1326571113D-01
     alpha-beta  T2 =       0.1156957192D+00 E2=     -0.8114443136D-01
     beta-beta   T2 =       0.1419062980D-01 E2=     -0.9035462663D-02
 E2(B2PLYPD3) =    -0.1034456052D+00 E(B2PLYPD3) =    -0.79100738005622D+02
 Leave Link  804 at Sat Nov 12 22:09:57 2022, MaxMem=   939524096 cpu:        32.3
 (Enter /Local/ce_dana/g09/l1002.exe)
 Minotr:  UHF open shell wavefunction.
          Computing MP2/KS-MP2 derivatives.
          Using Z-Vector for PSCF gradient.
          Skipping F1 and S1 gradient terms here.
          IDoAtm=1111111
          Frozen-core window.
          Direct CPHF calculation.
          Differentiating once with respect to electric field.
                with respect to dipole field.
          Differentiating once with respect to nuclear coordinates.
          Requested convergence is 1.0D-10 RMS, and 1.0D-09 maximum.
          NewPWx=T KeepS1=F KeepF1=F KeepIn=T MapXYZ=F SortEE=F KeepMc=T.
          MDV=     939523842 using IRadAn=       5.
 Using stored XC quadrature information.
 Keep R1 and R2 ints in memory in canonical form, NReq=20312692.
 FoFCou: FMM=F IPFlag=           0 FMFlag=           0 FMFlg1=           0
         NFxFlg=           0 DoJE=F BraDBF=F KetDBF=F FulRan=T
         wScrn=  0.000000 ICntrl=     600 IOpCl=  0 I1Cent=           0 NGrid=           0
         NMat0=    1 NMatS0=   4278 NMatT0=    0 NMatD0=    1 NMtDS0=    0 NMtDT0=    0
 Symmetry not used in FoFCou.
          Solving linear equations separately, MaxMat=       0.
          There are     1 degrees of freedom in the 1st order CPHF.  IDoFFX=0 NUNeed=     1.
 LinEq1:  Iter=  0 NonCon=     1 RMS=8.96D-04 Max=2.03D-02 NDo=     1
 AX will form     1 AO Fock derivatives at one time.
 LinEq1:  Iter=  1 NonCon=     1 RMS=3.52D-04 Max=5.06D-03 NDo=     1
 LinEq1:  Iter=  2 NonCon=     1 RMS=1.21D-04 Max=1.03D-03 NDo=     1
 LinEq1:  Iter=  3 NonCon=     1 RMS=2.35D-05 Max=2.44D-04 NDo=     1
 LinEq1:  Iter=  4 NonCon=     1 RMS=9.97D-06 Max=1.47D-04 NDo=     1
 LinEq1:  Iter=  5 NonCon=     1 RMS=3.23D-06 Max=3.69D-05 NDo=     1
 LinEq1:  Iter=  6 NonCon=     1 RMS=8.94D-07 Max=6.98D-06 NDo=     1
 LinEq1:  Iter=  7 NonCon=     1 RMS=1.71D-07 Max=1.46D-06 NDo=     1
 LinEq1:  Iter=  8 NonCon=     1 RMS=4.32D-08 Max=3.56D-07 NDo=     1
 LinEq1:  Iter=  9 NonCon=     1 RMS=1.29D-08 Max=1.34D-07 NDo=     1
 LinEq1:  Iter= 10 NonCon=     1 RMS=3.04D-09 Max=2.71D-08 NDo=     1
 LinEq1:  Iter= 11 NonCon=     1 RMS=7.59D-10 Max=7.20D-09 NDo=     1
 LinEq1:  Iter= 12 NonCon=     1 RMS=1.37D-10 Max=1.16D-09 NDo=     1
 LinEq1:  Iter= 13 NonCon=     0 RMS=2.04D-11 Max=1.38D-10 NDo=     1
 Linear equations converged to 1.000D-10 1.000D-09 after    13 iterations.
 End of Minotr F.D. properties file   721 does not exist.
 End of Minotr F.D. properties file   722 does not exist.
 End of Minotr F.D. properties file   788 does not exist.
 Leave Link 1002 at Sat Nov 12 22:10:09 2022, MaxMem=   939524096 cpu:       117.9
 (Enter /Local/ce_dana/g09/l1102.exe)
 Use density number 2.
 Symmetrizing basis deriv contribution to polar:
 IMax=3 JMax=2 DiffMx= 0.00D+00
 Leave Link 1102 at Sat Nov 12 22:10:10 2022, MaxMem=   939524096 cpu:         0.1
 (Enter /Local/ce_dana/g09/l1110.exe)
 Forming Gx(P) for generalized density number  2 NAtomX=     7.
 Integral derivatives from FoFJK, PRISM(SPDF).
 Do as many integral derivatives as possible in FoFJK.
 G2DrvN: MDV=     939523936.
 G2DrvN: will do     8 centers at a time, making    1 passes.
 Calling FoFCou, ICntrl=  3107 FMM=F I1Cent=   0 AccDes= 1.00D-12.
 FoFJK:  IHMeth= 1 ICntrl=    3107 DoSepK=F KAlg= 0 I1Cent=   0 FoldK=F
 IRaf=         0 NMat=   1 IRICut=       1 DoRegI=T DoRafI=F ISym2E= 0.
 FoFCou: FMM=F IPFlag=           0 FMFlag=      100000 FMFlg1=           0
         NFxFlg=           0 DoJE=F BraDBF=F KetDBF=F FulRan=T
         wScrn=  0.000000 ICntrl=    3107 IOpCl=  1 I1Cent=           0 NGrid=           0
         NMat0=    1 NMatS0=      1 NMatT0=    0 NMatD0=    1 NMtDS0=    0 NMtDT0=    0
 Symmetry not used in FoFCou.
 End of G2Drv F.D. properties file   721 does not exist.
 End of G2Drv F.D. properties file   722 does not exist.
 End of G2Drv F.D. properties file   788 does not exist.
 Leave Link 1110 at Sat Nov 12 22:10:22 2022, MaxMem=   939524096 cpu:       121.0
 (Enter /Local/ce_dana/g09/l1112.exe)
 MP22nd: MDV=     939524096
 DoSCS=T DFT=T ScalE2(SS,OS)=  0.270000  0.270000
 Using stored XC quadrature information.
 This link is doing NAtomX=     7 total of    24 degrees of freedom.
 Using ON3 I/O method in MakUI.
 Frozen-core window:  NFC=   2 NFV=   0.
 Using Ix for Sx.
 Use MO integrals over full window.
 Using OV2 memory method for fx*t*t/D, MaxI=     8 DoOO2=F NP=  10.
 R2 and R3 integrals will be kept in memory, NReq=    29539262.
 FoFCou: FMM=F IPFlag=           0 FMFlag=           0 FMFlg1=           0
         NFxFlg=           0 DoJE=F BraDBF=F KetDBF=F FulRan=T
         wScrn=  0.000000 ICntrl=     600 IOpCl=  0 I1Cent=           0 NGrid=           0
         NMat0=    1 NMatS0=      1 NMatT0=    0 NMatD0=    1 NMtDS0=    0 NMtDT0=    0
 Symmetry not used in FoFCou.
 DD1Dir will call FoFMem   1 times, MxPair=       208
 NAB=    72 NAA=    36 NBB=    28.
 Symmetry is being used.
 FoFJK:  IHMeth= 1 ICntrl=       0 DoSepK=F KAlg= 0 I1Cent=   0 FoldK=F
 IRaf=         0 NMat=  24 IRICut=      60 DoRegI=T DoRafI=T ISym2E= 2.
 R6Disp: Adding Grimme-D3(BJ) dispersion energy 1st derivatives to the gradient.
 Discarding MO integrals.
 Leave Link 1112 at Sat Nov 12 22:10:57 2022, MaxMem=   939524096 cpu:       295.8
 (Enter /Local/ce_dana/g09/l601.exe)
 Copying SCF densities to generalized density rwf, IOpCl= 1 IROHF=0.

 **********************************************************************

            Population analysis using the SCF density.

 **********************************************************************

 Orbital symmetries:
 Alpha Orbitals:
       Occupied  (A) (A) (A) (A) (A) (A) (A) (A) (A)
       Virtual   (A) (A) (A) (A) (A) (A) (A) (A) (A) (A) (A) (A)
                 (A) (A) (A) (A) (A) (A) (A) (A) (A) (A) (A) (A)
                 (A) (A) (A) (A) (A) (A) (A) (A) (A) (A) (A) (A)
                 (A) (A) (A) (A) (A) (A) (A) (A) (A) (A) (A) (A)
                 (A) (A) (A) (A) (A) (A) (A) (A) (A) (A) (A) (A)
                 (A) (A) (A) (A) (A) (A) (A) (A) (A) (A) (A) (A)
                 (A) (A) (A) (A) (A) (A) (A) (A) (A) (A) (A)
 Beta  Orbitals:
       Occupied  (A) (A) (A) (A) (A) (A) (A) (A)
       Virtual   (A) (A) (A) (A) (A) (A) (A) (A) (A) (A) (A) (A)
                 (A) (A) (A) (A) (A) (A) (A) (A) (A) (A) (A) (A)
                 (A) (A) (A) (A) (A) (A) (A) (A) (A) (A) (A) (A)
                 (A) (A) (A) (A) (A) (A) (A) (A) (A) (A) (A) (A)
                 (A) (A) (A) (A) (A) (A) (A) (A) (A) (A) (A) (A)
                 (A) (A) (A) (A) (A) (A) (A) (A) (A) (A) (A) (A)
                 (A) (A) (A) (A) (A) (A) (A) (A) (A) (A) (A) (A)
 The electronic state is 2-A.
 Alpha  occ. eigenvalues --  -10.61524 -10.60563  -0.87200  -0.70639  -0.52327
 Alpha  occ. eigenvalues --   -0.48379  -0.45711  -0.42085  -0.26397
 Alpha virt. eigenvalues --    0.09085   0.12368   0.14410   0.16023   0.18523
 Alpha virt. eigenvalues --    0.22789   0.24489   0.27480   0.28385   0.30305
 Alpha virt. eigenvalues --    0.33146   0.35236   0.46180   0.49059   0.50093
 Alpha virt. eigenvalues --    0.53311   0.56479   0.60279   0.63967   0.71238
 Alpha virt. eigenvalues --    0.71829   0.90265   0.91942   0.98746   1.06247
 Alpha virt. eigenvalues --    1.10725   1.13296   1.14402   1.21024   1.47182
 Alpha virt. eigenvalues --    1.55799   1.60412   1.60888   1.64979   1.67110
 Alpha virt. eigenvalues --    1.67766   1.82132   1.84250   1.91952   1.93818
 Alpha virt. eigenvalues --    1.93898   2.05159   2.13894   2.21710   2.27726
 Alpha virt. eigenvalues --    2.32211   2.37342   2.47807   2.48363   2.59279
 Alpha virt. eigenvalues --    2.63789   2.66969   2.68777   2.74337   2.79392
 Alpha virt. eigenvalues --    2.88848   2.92959   3.03928   3.05146   3.12591
 Alpha virt. eigenvalues --    3.13515   3.22827   3.25065   3.29698   3.32309
 Alpha virt. eigenvalues --    3.35355   3.47091   3.49290   3.59181   3.66236
 Alpha virt. eigenvalues --    3.79489   3.86061   4.05032   4.10705   4.14360
 Alpha virt. eigenvalues --    4.31290   4.43882   4.55502   4.60766   4.74110
 Alpha virt. eigenvalues --    4.84065  22.49842  22.75366
  Beta  occ. eigenvalues --  -10.60712 -10.59791  -0.84823  -0.67173  -0.51594
  Beta  occ. eigenvalues --   -0.46123  -0.44793  -0.41593
  Beta virt. eigenvalues --    0.01990   0.09205   0.13213   0.14522   0.16244
  Beta virt. eigenvalues --    0.18687   0.23091   0.24650   0.27545   0.29041
  Beta virt. eigenvalues --    0.34792   0.35457   0.36287   0.46251   0.50323
  Beta virt. eigenvalues --    0.51439   0.54268   0.57560   0.60782   0.64520
  Beta virt. eigenvalues --    0.73191   0.75621   0.90606   0.93597   0.99731
  Beta virt. eigenvalues --    1.06635   1.12945   1.13524   1.16356   1.22015
  Beta virt. eigenvalues --    1.49359   1.60431   1.61149   1.62560   1.65434
  Beta virt. eigenvalues --    1.67944   1.68937   1.82489   1.84234   1.92655
  Beta virt. eigenvalues --    1.94516   1.95336   2.06133   2.14858   2.22809
  Beta virt. eigenvalues --    2.28939   2.32922   2.38391   2.48680   2.48824
  Beta virt. eigenvalues --    2.59893   2.64032   2.67387   2.68913   2.75837
  Beta virt. eigenvalues --    2.82795   2.89301   2.93330   3.06370   3.09630
  Beta virt. eigenvalues --    3.14219   3.14487   3.23270   3.27823   3.31272
  Beta virt. eigenvalues --    3.34436   3.37954   3.48794   3.49818   3.62153
  Beta virt. eigenvalues --    3.67261   3.80852   3.86570   4.05987   4.12306
  Beta virt. eigenvalues --    4.14788   4.32489   4.45273   4.55919   4.61011
  Beta virt. eigenvalues --    4.75022   4.85093  22.51144  22.75451
          Condensed to atoms (all electrons):
               1          2          3          4          5          6
     1  C    5.279480   0.303658   0.411023   0.411023  -0.040677  -0.050166
     2  C    0.303658   4.821804  -0.038045  -0.038045   0.416388   0.408830
     3  H    0.411023  -0.038045   0.539412  -0.029779  -0.005091  -0.000109
     4  H    0.411023  -0.038045  -0.029779   0.539412   0.005069  -0.000109
     5  H   -0.040677   0.416388  -0.005091   0.005069   0.574763  -0.034872
     6  H   -0.050166   0.408830  -0.000109  -0.000109  -0.034872   0.599254
     7  H   -0.040677   0.416388   0.005069  -0.005091  -0.024356  -0.034872
               7
     1  C   -0.040677
     2  C    0.416388
     3  H    0.005069
     4  H   -0.005091
     5  H   -0.024356
     6  H   -0.034872
     7  H    0.574763
          Atomic-Atomic Spin Densities.
               1          2          3          4          5          6
     1  C    1.223395  -0.051812  -0.000819  -0.000819  -0.009787  -0.036123
     2  C   -0.051812  -0.089556   0.000234   0.000234   0.007617   0.015978
     3  H   -0.000819   0.000234  -0.054752   0.002274   0.001281  -0.000538
     4  H   -0.000819   0.000234   0.002274  -0.054752   0.000012  -0.000538
     5  H   -0.009787   0.007617   0.001281   0.000012   0.025743  -0.013168
     6  H   -0.036123   0.015978  -0.000538  -0.000538  -0.013168   0.114080
     7  H   -0.009787   0.007617   0.000012   0.001281   0.005070  -0.013168
               7
     1  C   -0.009787
     2  C    0.007617
     3  H    0.000012
     4  H    0.001281
     5  H    0.005070
     6  H   -0.013168
     7  H    0.025742
 Mulliken charges and spin densities:
               1          2
     1  C   -0.273663   1.114248
     2  C   -0.290976  -0.109689
     3  H    0.117520  -0.052308
     4  H    0.117520  -0.052308
     5  H    0.108777   0.016768
     6  H    0.112045   0.066524
     7  H    0.108777   0.016767
 Sum of Mulliken charges =  -0.00000   1.00000
 Mulliken charges and spin densities with hydrogens summed into heavy atoms:
               1          2
     1  C   -0.038623   1.009631
     2  C    0.038623  -0.009631
 APT charges:
               1
     1  C   -0.057043
     2  C    0.060129
     3  H    0.017736
     4  H    0.017736
     5  H   -0.011410
     6  H   -0.015738
     7  H   -0.011410
 Sum of APT charges =  -0.00000
 APT charges with hydrogens summed into heavy atoms:
               1
     1  C   -0.021571
     2  C    0.021571
 Electronic spatial extent (au):  <R**2>=             99.1211
 Charge=             -0.0000 electrons
 Dipole moment (field-independent basis, Debye):
    X=              0.2245    Y=              0.0000    Z=              0.1260  Tot=              0.2574
 Quadrupole moment (field-independent basis, Debye-Ang):
   XX=            -14.5327   YY=            -13.6863   ZZ=            -15.3522
   XY=              0.0000   XZ=             -0.1765   YZ=              0.0000
 Traceless Quadrupole moment (field-independent basis, Debye-Ang):
   XX=             -0.0090   YY=              0.8375   ZZ=             -0.8285
   XY=              0.0000   XZ=             -0.1765   YZ=              0.0000
 Octapole moment (field-independent basis, Debye-Ang**2):
  XXX=             -0.0148  YYY=              0.0000  ZZZ=              0.7763  XYY=             -0.5336
  XXY=              0.0000  XXZ=              0.2033  XZZ=              1.6100  YZZ=             -0.0000
  YYZ=             -0.4510  XYZ=              0.0000
 Hexadecapole moment (field-independent basis, Debye-Ang**3):
 XXXX=            -87.6817 YYYY=            -28.8503 ZZZZ=            -24.7853 XXXY=              0.0000
 XXXZ=             -0.5638 YYYX=              0.0000 YYYZ=              0.0000 ZZZX=              0.3339
 ZZZY=              0.0000 XXYY=            -17.2552 XXZZ=            -19.4967 YYZZ=             -9.3044
 XXYZ=             -0.0000 YYXZ=             -0.8891 ZZXY=             -0.0000
 N-N= 3.703649645258D+01 E-N=-2.568967351800D+02  KE= 7.871594552849D+01
  Exact polarizability:  28.829  -0.000  24.466   0.434  -0.000  22.230
 Approx polarizability:  27.312  -0.000  26.272   0.412  -0.000  24.032
                          Isotropic Fermi Contact Couplings
        Atom                 a.u.       MegaHertz       Gauss      10(-4) cm-1
     1  C(13)              0.07978      89.68308      32.00115      29.91506
     2  C(13)             -0.03344     -37.59746     -13.41571     -12.54116
     3  H(1)              -0.01422     -63.56909     -22.68303     -21.20437
     4  H(1)              -0.01422     -63.56918     -22.68306     -21.20440
     5  H(1)               0.00815      36.43410      13.00059      12.15311
     6  H(1)               0.03314     148.12403      52.85434      49.40886
     7  H(1)               0.00815      36.43255      13.00004      12.15259
 --------------------------------------------------------
       Center         ----  Spin Dipole Couplings  ----
                      3XX-RR        3YY-RR        3ZZ-RR
 --------------------------------------------------------
     1   Atom       -0.571673     -0.565447      1.137120
     2   Atom        0.012650     -0.018741      0.006091
     3   Atom       -0.036986      0.033533      0.003453
     4   Atom       -0.036986      0.033533      0.003453
     5   Atom        0.011993     -0.003835     -0.008157
     6   Atom        0.012398     -0.010484     -0.001914
     7   Atom        0.011993     -0.003835     -0.008157
 --------------------------------------------------------
                        XY            XZ            YZ
 --------------------------------------------------------
     1   Atom       -0.000000      0.056684      0.000000
     2   Atom       -0.000000      0.003186      0.000000
     3   Atom        0.063087     -0.000733     -0.005883
     4   Atom       -0.063087     -0.000733      0.005883
     5   Atom       -0.009715     -0.003578      0.000828
     6   Atom       -0.000000      0.009377     -0.000000
     7   Atom        0.009715     -0.003578     -0.000828
 --------------------------------------------------------


 ---------------------------------------------------------------------------------
              Anisotropic Spin Dipole Couplings in Principal Axis System
 ---------------------------------------------------------------------------------

       Atom             a.u.   MegaHertz   Gauss  10(-4) cm-1        Axes

              Baa    -0.5736   -76.965   -27.463   -25.673  0.9995  0.0000 -0.0331
     1 C(13)  Bbb    -0.5654   -75.878   -27.075   -25.310 -0.0000  1.0000 -0.0000
              Bcc     1.1390   152.843    54.538    50.983  0.0331  0.0000  0.9995
 
              Baa    -0.0187    -2.515    -0.897    -0.839  0.0000  1.0000 -0.0000
     2 C(13)  Bbb     0.0048     0.644     0.230     0.215 -0.3760  0.0000  0.9266
              Bcc     0.0139     1.871     0.668     0.624  0.9266  0.0000  0.3760
 
              Baa    -0.0741   -39.520   -14.102   -13.183  0.8615 -0.5068 -0.0303
     3 H(1)   Bbb     0.0031     1.646     0.587     0.549  0.0668  0.0540  0.9963
              Bcc     0.0710    37.874    13.514    12.633  0.5033  0.8604 -0.0804
 
              Baa    -0.0741   -39.520   -14.102   -13.183  0.8615  0.5068 -0.0303
     4 H(1)   Bbb     0.0031     1.646     0.587     0.549  0.0668 -0.0540  0.9963
              Bcc     0.0710    37.874    13.514    12.633 -0.5033  0.8604  0.0804
 
              Baa    -0.0093    -4.987    -1.779    -1.663  0.3753  0.5493  0.7466
     5 H(1)   Bbb    -0.0078    -4.147    -1.480    -1.383  0.2371  0.7218 -0.6502
              Bcc     0.0171     9.134     3.259     3.047  0.8961 -0.4210 -0.1406
 
              Baa    -0.0105    -5.594    -1.996    -1.866 -0.0000  1.0000  0.0000
     6 H(1)   Bbb    -0.0066    -3.497    -1.248    -1.166 -0.4435 -0.0000  0.8963
              Bcc     0.0170     9.090     3.244     3.032  0.8963 -0.0000  0.4435
 
              Baa    -0.0093    -4.987    -1.779    -1.663  0.3753 -0.5493  0.7466
     7 H(1)   Bbb    -0.0078    -4.147    -1.480    -1.383 -0.2371  0.7218  0.6503
              Bcc     0.0171     9.134     3.259     3.047  0.8961  0.4210 -0.1406
 

 ---------------------------------------------------------------------------------

 No NMR shielding tensors so no spin-rotation constants.
 Leave Link  601 at Sat Nov 12 22:10:58 2022, MaxMem=   939524096 cpu:         2.3
 (Enter /Local/ce_dana/g09/l701.exe)
 Compute integral second derivatives.
 ... and contract with generalized density number  2.
 Use density number 2.
 R6Disp: Adding Grimme-D3(BJ) dispersion energy 2nd derivatives to the Hessian.
 Entering OneElI...
 Calculate overlap and kinetic energy integrals
    NBasis = 102  MinDer = 2  MaxDer = 2
 Requested accuracy = 0.1000D-14
 PrsmSu:  NPrtUS=  10 ThrOK=T IAlg=1 NPAlg=1 LenDen=           0.
 Prism:   IPart=     0 DynPar=F LinDyn=F Incr=           1.
 PRISM was handed    93924349 working-precision words and   903 shell-pairs
 PRISM was handed    93924349 working-precision words and   903 shell-pairs
 PRISM was handed    93924349 working-precision words and   903 shell-pairs
 PRISM was handed    93924349 working-precision words and   903 shell-pairs
 PRISM was handed    93924349 working-precision words and   903 shell-pairs
 PRISM was handed    93924349 working-precision words and   903 shell-pairs
 PRISM was handed    93924349 working-precision words and   903 shell-pairs
 PRISM was handed    93924349 working-precision words and   903 shell-pairs
 PRISM was handed    93924349 working-precision words and   903 shell-pairs
 PRISM was handed    93924349 working-precision words and   903 shell-pairs
 IPart=  0 NShTot=         109 NBatch=          40 AvBLen=         2.7
 IPart=  3 NShTot=          98 NBatch=          33 AvBLen=         3.0
 IPart=  5 NShTot=          85 NBatch=          24 AvBLen=         3.5
 IPart=  9 NShTot=          73 NBatch=          18 AvBLen=         4.1
 IPart=  7 NShTot=          82 NBatch=          23 AvBLen=         3.6
 IPart=  4 NShTot=          91 NBatch=          28 AvBLen=         3.3
 IPart=  6 NShTot=          84 NBatch=          24 AvBLen=         3.5
 IPart=  8 NShTot=          74 NBatch=          19 AvBLen=         3.9
 IPart=  2 NShTot=         100 NBatch=          35 AvBLen=         2.9
 IPart=  1 NShTot=         107 NBatch=          39 AvBLen=         2.7
 PrSmSu:  NxtVal=             11.
 Entering OneElI...
 Calculate potential energy integrals
    NBasis = 102  MinDer = 2  MaxDer = 2
 Requested accuracy = 0.1000D-14
 PrsmSu:  NPrtUS=  10 ThrOK=T IAlg=1 NPAlg=1 LenDen=           0.
 Prism:   IPart=     0 DynPar=F LinDyn=F Incr=           6.
 PRISM was handed    93926301 working-precision words and   902 shell-pairs
 PRISM was handed    93926301 working-precision words and   902 shell-pairs
 PRISM was handed    93926301 working-precision words and   902 shell-pairs
 PRISM was handed    93926301 working-precision words and   902 shell-pairs
 PRISM was handed    93926301 working-precision words and   902 shell-pairs
 PRISM was handed    93926301 working-precision words and   902 shell-pairs
 PRISM was handed    93926301 working-precision words and   902 shell-pairs
 PRISM was handed    93926301 working-precision words and   902 shell-pairs
 PRISM was handed    93926301 working-precision words and   902 shell-pairs
 PRISM was handed    93926301 working-precision words and   902 shell-pairs
 IPart=  0 NShTot=         763 NBatch=         109 AvBLen=         7.0
 IPart=  8 NShTot=         518 NBatch=          74 AvBLen=         7.0
 IPart=  5 NShTot=         602 NBatch=          86 AvBLen=         7.0
 IPart=  7 NShTot=         574 NBatch=          82 AvBLen=         7.0
 IPart=  9 NShTot=         511 NBatch=          73 AvBLen=         7.0
 IPart=  6 NShTot=         581 NBatch=          83 AvBLen=         7.0
 IPart=  4 NShTot=         637 NBatch=          91 AvBLen=         7.0
 IPart=  3 NShTot=         679 NBatch=          97 AvBLen=         7.0
 IPart=  2 NShTot=         693 NBatch=          99 AvBLen=         7.0
 IPart=  1 NShTot=         756 NBatch=         108 AvBLen=         7.0
 PrSmSu:  NxtVal=             61.
   1 Symmetry operations used in ECPInt.
 ECPInt:  NShTT=     903 NPrTT=    2544 LenC2=     903 LenP2D=    2343.
 LDataN:  DoStor=F MaxTD1= 8 Len=  415
 LDataN:  DoStor=T MaxTD1= 8 Len=  415
 ECPSu:  NPrtUS=  10 ThrOK=T
 Polarizability after L701:
                1             2             3 
      1  0.288295D+02
      2 -0.797055D-05  0.244662D+02
      3  0.434232D+00 -0.128083D-05  0.222296D+02
 Dipole Derivatives after L701:
                 1             2             3             4             5 
      1   0.123468D+00  0.000000D+00 -0.713057D-02 -0.338566D-03  0.123441D-05
      2   0.000000D+00  0.106813D+00  0.000000D+00  0.000000D+00  0.462764D-01
      3  -0.138747D-01  0.000000D+00 -0.401409D+00  0.131254D-02  0.000000D+00
                 6             7             8             9            10 
      1  -0.520164D-01 -0.426198D-01 -0.674027D-01  0.181939D-01 -0.426199D-01
      2   0.000000D+00 -0.374496D-01 -0.537215D-01  0.132051D-01  0.374496D-01
      3   0.134450D+00  0.129635D-01  0.898421D-02  0.149549D+00  0.129636D-01
                11            12            13            14            15 
      1   0.674030D-01  0.181939D-01 -0.666005D-02  0.727203D-01  0.563459D-01
      2  -0.537214D-01 -0.132052D-01  0.469766D-01 -0.641963D-01 -0.776907D-01
      3  -0.898417D-02  0.149549D+00  0.223299D-01 -0.765384D-01  0.366257D-01
                16            17            18            19            20 
      1  -0.245700D-01  0.000000D+00 -0.899314D-01 -0.665994D-02 -0.727213D-01
      2   0.000000D+00  0.827487D-01  0.141057D-05 -0.469769D-01 -0.641984D-01
      3  -0.580241D-01  0.140288D-05 -0.105391D+00  0.223293D-01  0.765371D-01
                21 
      1   0.563447D-01
      2   0.776894D-01
      3   0.366276D-01
 Hessian after L701:
                1             2             3             4             5 
      1  0.305004D+01
      2  0.000000D+00  0.591001D+01
      3  0.319089D-01  0.000000D+00  0.822245D+01
      4  0.477362D+00  0.000000D+00  0.676733D-01  0.562951D+01
      5  0.000000D+00 -0.389448D+01  0.000000D+00 -0.258190D-05  0.850515D+01
      6  0.779517D-01  0.000000D+00 -0.386925D+01 -0.739294D-01 -0.152689D-05
      7 -0.179135D+01  0.836837D+00 -0.515450D-01 -0.566069D-04 -0.317718D-02
      8  0.805826D+00 -0.104779D+01 -0.816784D-01  0.274004D-01  0.475395D-01
      9 -0.493915D-01 -0.771353D-01 -0.226571D+01  0.330846D-03 -0.601595D-02
     10 -0.179135D+01 -0.836838D+00 -0.515446D-01 -0.567632D-04  0.317710D-02
     11 -0.805827D+00 -0.104778D+01  0.816778D-01 -0.274006D-01  0.475396D-01
     12 -0.493911D-01  0.771348D-01 -0.226571D+01  0.330936D-03  0.601589D-02
     13  0.230091D-01 -0.164308D-01 -0.353378D-01 -0.204859D+01 -0.590299D+00
     14 -0.535188D-01  0.425741D-01  0.452843D-01 -0.566188D+00 -0.122475D+01
     15 -0.496131D-01  0.434890D-01  0.183499D-01 -0.307279D+00  0.609761D+00
     16  0.927414D-02  0.000000D+00  0.741822D-01 -0.200958D+01 -0.416854D-05
     17  0.000000D+00 -0.510445D-02  0.000000D+00 -0.414044D-05 -0.225627D+01
     18  0.881470D-01  0.000000D+00  0.141528D+00  0.620145D+00 -0.942763D-05
     19  0.230096D-01  0.164313D-01 -0.353369D-01 -0.204859D+01  0.590305D+00
     20  0.535196D-01  0.425749D-01 -0.452835D-01  0.566194D+00 -0.122473D+01
     21 -0.496119D-01 -0.434883D-01  0.183480D-01 -0.307272D+00 -0.609750D+00
                6             7             8             9            10 
      6  0.865155D+01
      7  0.355839D-02  0.169714D+01
      8 -0.227764D-02 -0.881275D+00  0.108204D+01
      9  0.787236D-04  0.492380D-01  0.847540D-01  0.223445D+01
     10  0.355845D-02  0.557691D-01 -0.120055D-01 -0.150005D-02  0.169714D+01
     11  0.227760D-02  0.120056D-01 -0.988132D-01 -0.207086D-02  0.881276D+00
     12  0.788920D-04 -0.150005D-02  0.207090D-02  0.408577D-01  0.492375D-01
     13 -0.320579D+00 -0.351059D-02  0.763912D-02  0.116240D-02  0.252931D-01
     14  0.609206D+00 -0.891724D-02 -0.547822D-02  0.285509D-02 -0.371631D-01
     15 -0.198861D+01 -0.305777D-02 -0.535712D-02  0.879226D-03 -0.145776D-01
     16  0.630012D+00  0.167156D-01  0.155927D-01  0.733057D-02  0.167158D-01
     17 -0.946806D-05  0.736352D-02 -0.101125D-02  0.356487D-02 -0.736387D-02
     18 -0.805207D+00  0.178837D-01  0.155889D-01 -0.187528D-02  0.178838D-01
     19 -0.320572D+00  0.252931D-01  0.368223D-01 -0.717032D-02 -0.351100D-02
     20 -0.609195D+00  0.371634D-01  0.235082D-01 -0.595185D-02  0.891729D-02
     21 -0.198863D+01 -0.145773D-01 -0.131006D-01 -0.867950D-02 -0.305756D-02
               11            12            13            14            15 
     11  0.108204D+01
     12 -0.847535D-01  0.223445D+01
     13 -0.368222D-01 -0.717045D-02  0.192785D+01
     14  0.235080D-01  0.595195D-02  0.657557D+00  0.119696D+01
     15  0.131010D-01 -0.867946D-02  0.372803D+00 -0.610978D+00  0.198257D+01
     16 -0.155930D-01  0.733069D-02  0.454637D-01 -0.309995D-02  0.110267D-01
     17 -0.101106D-02 -0.356499D-02 -0.103134D-01  0.189010D-01 -0.684635D-01
     18 -0.155891D-01 -0.187537D-02 -0.157506D-02 -0.338710D-01 -0.396309D-01
     19 -0.763917D-02  0.116248D-02  0.304892D-01  0.113308D-01 -0.930296D-02
     20 -0.547817D-02 -0.285506D-02 -0.113307D-01 -0.517149D-01  0.184476D-01
     21  0.535698D-02  0.879258D-03 -0.930313D-02 -0.184488D-01  0.351209D-01
               16            17            18            19            20 
     16  0.187594D+01
     17  0.473449D-05  0.222560D+01
     18 -0.740909D+00  0.963181D-05  0.746690D+00
     19  0.454634D-01  0.103134D-01 -0.157497D-02  0.192785D+01
     20  0.309975D-02  0.188995D-01  0.338716D-01 -0.657564D+00  0.119694D+01
     21  0.110268D-01  0.684642D-01 -0.396294D-01  0.372795D+00  0.610966D+00
               21 
     21  0.198259D+01
 Leave Link  701 at Sat Nov 12 22:10:58 2022, MaxMem=   939524096 cpu:         5.2
 (Enter /Local/ce_dana/g09/l702.exe)
 L702 exits ... SP integral derivatives will be done elsewhere.
 Leave Link  702 at Sat Nov 12 22:10:58 2022, MaxMem=   939524096 cpu:         0.1
 (Enter /Local/ce_dana/g09/l703.exe)
 Compute integral second derivatives, UseDBF=F ICtDFT=           0.
 Integral derivatives from FoFJK, PRISM(SPDF).
 ICntrl=  10100127.
 Calling FoFJK, ICntrl=  10100127 FMM=F ISym2X=0 I1Cent= 0 IOpClX= 1 NMat=1 NMatS=1 NMatT=0.
 FoFJK:  IHMeth= 1 ICntrl=10100127 DoSepK=F KAlg= 0 I1Cent=   0 FoldK=F
 IRaf=         0 NMat=   1 IRICut=       1 DoRegI=T DoRafI=F ISym2E= 0.
 FoFCou: FMM=F IPFlag=           0 FMFlag=      100000 FMFlg1=         800
         NFxFlg=           0 DoJE=F BraDBF=F KetDBF=F FulRan=T
         wScrn=  0.000000 ICntrl=10100127 IOpCl=  1 I1Cent=           0 NGrid=           0
         NMat0=    1 NMatS0=      1 NMatT0=    0 NMatD0=    1 NMtDS0=    0 NMtDT0=    0
 Symmetry not used in FoFCou.
 FoFCou:  KetSym=F NOpSet=  1 NOpAb=1 NOp=  1.
 FoFCou:  CnvScl= 1.00D+00 Thresh= 1.00D-12 IAcrcy=      10.
 PrismS was handed   939440449 working-precision words and   902 shell-pairs
 FoFCou: LinMIO=F DoNuc=F BraDBF=F KetDBF=F HaveP=T PDBF=F HaveZ=T HaveW=F
         NIJTC =      10 NIJTAt=       0 NIJTCD=       0 NIJTT =      10
         IJTBeg=       1 IJTEnd=      10 KLTBeg=       1 KLTEnd=      10
         IPTBeg=       1 IPTEnd=      10 IPTBCv=       1 IPTECv=      10
         IZTBeg=       1 IZTEnd=      10 IZTBCv=       1 IZTECv=      10
         IWTBeg=      11 IWTEnd=      10 IWTBCv=      11 IWTECv=      10
         INTBeg=       1 INTEnd=       0 IFTBCv=       1 IFTECv=      10
 NCel replicated for PrismC:     1
 CoulSu:  IncDef=  1024 NBBP=         407253 NTPThr=   100 NPartT=   10 Incr=         407 LDynOK=F.
 CoulSu:  NPrtUS=  10 ThrOK=T IAlg=1 NPAlg=1 LenDen=           0 LWGrdD=           0 DoCopy=F.
 Enter PrismC: JobTyp=22 DoJE=F Cont=F.
 PrismC:  IPart=     0 DynPar=T LinDyn=F Incr=         407 UseFst=F UseS4=T IGathr=2.
 Enter PrismC: JobTyp=22 DoJE=F Cont=F.
 PrismC was handed    93926296 working-precision words and   902 shell-pairs
 Enter PrismC: JobTyp=22 DoJE=F Cont=F.
 Enter PrismC: JobTyp=22 DoJE=F Cont=F.
 PrismC was handed    93926296 working-precision words and   902 shell-pairs
 Enter PrismC: JobTyp=22 DoJE=F Cont=F.
 Enter PrismC: JobTyp=22 DoJE=F Cont=F.
 Enter PrismC: JobTyp=22 DoJE=F Cont=F.
 PrismC was handed    93926296 working-precision words and   902 shell-pairs
 PrismC was handed    93926296 working-precision words and   902 shell-pairs
 Enter PrismC: JobTyp=22 DoJE=F Cont=F.
 Enter PrismC: JobTyp=22 DoJE=F Cont=F.
 PrismC was handed    93926296 working-precision words and   902 shell-pairs
 PrismC was handed    93926296 working-precision words and   902 shell-pairs
 PrismC was handed    93926296 working-precision words and   902 shell-pairs
 PrismC was handed    93926296 working-precision words and   902 shell-pairs
 Enter PrismC: JobTyp=22 DoJE=F Cont=F.
 PrismC was handed    93926296 working-precision words and   902 shell-pairs
 PrismC was handed    93926296 working-precision words and   902 shell-pairs
 IPart=  8 NShTot=       45645 NShNF=       45645 NShFF=           0 NBatch=        1302 AvBLen=        35.1
 IPart=  5 NShTot=       47680 NShNF=       47680 NShFF=           0 NBatch=        1432 AvBLen=        33.3
 IPart=  6 NShTot=       41437 NShNF=       41437 NShFF=           0 NBatch=        1277 AvBLen=        32.4
 IPart=  2 NShTot=       38168 NShNF=       38168 NShFF=           0 NBatch=        1027 AvBLen=        37.2
 IPart=  3 NShTot=       40158 NShNF=       40158 NShFF=           0 NBatch=        1103 AvBLen=        36.4
 IPart=  7 NShTot=       38543 NShNF=       38543 NShFF=           0 NBatch=        1070 AvBLen=        36.0
 IPart=  0 NShTot=       31671 NShNF=       31671 NShFF=           0 NBatch=         648 AvBLen=        48.9
 IPart=  4 NShTot=       42697 NShNF=       42697 NShFF=           0 NBatch=        1232 AvBLen=        34.7
 IPart=  1 NShTot=       39947 NShNF=       39947 NShFF=           0 NBatch=        1245 AvBLen=        32.1
 IPart=  9 NShTot=       40019 NShNF=       40019 NShFF=           0 NBatch=        1288 AvBLen=        31.1
 CoulSu:  NxtVal=         442003.
 ReadGW:  IGet=0 IStart=           1 Next=           1 LGW=           0.
 Remaining memory in FofDFT      895.98 Mw
 CkSvGd:  ISavGI=        -1 IRadAn=       5 IRASav=       5 ISavGd=        -1.
 CalDSu:  NPrtUS=  10 ThrOK=T IAlg=1 NPAlg=2 DoDPD=T LenP=        5253 LenD1P=             0.
 IPart=  0 IRanGd=          0 ScrnBf=T ScrnGd=T RCrit=4.00D+00 DoMicB=T.
 IPart=  6        17005 of        19182 points in      19 batches and      109 microbatches, Max-NSigAt=       7 Max-NSgAt2=       7
 IPart=  2        14338 of        15438 points in      14 batches and       99 microbatches, Max-NSigAt=       7 Max-NSgAt2=       7
 IPart=  9        14927 of        16456 points in      16 batches and       92 microbatches, Max-NSigAt=       7 Max-NSgAt2=       7
 IPart=  1        13161 of        14216 points in      14 batches and       92 microbatches, Max-NSigAt=       7 Max-NSgAt2=       7
 IPart=  0        13674 of        14320 points in      12 batches and       81 microbatches, Max-NSigAt=       7 Max-NSgAt2=       7
 IPart=  4        13459 of        14264 points in      13 batches and       86 microbatches, Max-NSigAt=       7 Max-NSgAt2=       7
 IPart=  7        14310 of        14884 points in      10 batches and       48 microbatches, Max-NSigAt=       7 Max-NSgAt2=       7
 IPart=  8        14106 of        15178 points in      15 batches and      107 microbatches, Max-NSigAt=       7 Max-NSgAt2=       7
 IPart=  3        14330 of        15206 points in      13 batches and       95 microbatches, Max-NSigAt=       7 Max-NSgAt2=       7
 IPart=  5        14904 of        15958 points in      14 batches and       73 microbatches, Max-NSigAt=       7 Max-NSgAt2=       7
 Polarizability after L703:
                1             2             3 
      1  0.288295D+02
      2 -0.797055D-05  0.244662D+02
      3  0.434232D+00 -0.128083D-05  0.222296D+02
 Dipole Derivatives after L703:
                 1             2             3             4             5 
      1   0.123468D+00  0.000000D+00 -0.713057D-02 -0.338566D-03  0.123441D-05
      2   0.000000D+00  0.106813D+00  0.000000D+00  0.000000D+00  0.462764D-01
      3  -0.138747D-01  0.000000D+00 -0.401409D+00  0.131254D-02  0.000000D+00
                 6             7             8             9            10 
      1  -0.520164D-01 -0.426198D-01 -0.674027D-01  0.181939D-01 -0.426199D-01
      2   0.000000D+00 -0.374496D-01 -0.537215D-01  0.132051D-01  0.374496D-01
      3   0.134450D+00  0.129635D-01  0.898421D-02  0.149549D+00  0.129636D-01
                11            12            13            14            15 
      1   0.674030D-01  0.181939D-01 -0.666005D-02  0.727203D-01  0.563459D-01
      2  -0.537214D-01 -0.132052D-01  0.469766D-01 -0.641963D-01 -0.776907D-01
      3  -0.898417D-02  0.149549D+00  0.223299D-01 -0.765384D-01  0.366257D-01
                16            17            18            19            20 
      1  -0.245700D-01  0.000000D+00 -0.899314D-01 -0.665994D-02 -0.727213D-01
      2   0.000000D+00  0.827487D-01  0.141057D-05 -0.469769D-01 -0.641984D-01
      3  -0.580241D-01  0.140288D-05 -0.105391D+00  0.223293D-01  0.765371D-01
                21 
      1   0.563447D-01
      2   0.776894D-01
      3   0.366276D-01
 Hessian after L703:
                1             2             3             4             5 
      1  0.555337D+00
      2  0.000000D+00  0.639254D+00
      3 -0.152489D-01  0.000000D+00  0.570824D-01
      4 -0.241379D+00  0.000000D+00 -0.156909D-02  0.487495D+00
      5  0.000000D+00 -0.891177D-01  0.000000D+00  0.000000D+00  0.571443D+00
      6  0.523939D-02  0.000000D+00 -0.427754D-01 -0.220871D-01  0.000000D+00
      7 -0.131186D+00 -0.126666D+00  0.975109D-02 -0.878704D-02 -0.254025D-01
      8 -0.128176D+00 -0.276589D+00  0.137761D-01  0.373684D-02  0.458974D-02
      9  0.113481D-01  0.181647D-01 -0.110219D-01 -0.664781D-04 -0.338462D-02
     10 -0.131186D+00  0.126665D+00  0.975095D-02 -0.878707D-02  0.254025D-01
     11  0.128175D+00 -0.276588D+00 -0.137758D-01 -0.373685D-02  0.458972D-02
     12  0.113479D-01 -0.181645D-01 -0.110221D-01 -0.664513D-04  0.338461D-02
     13 -0.153714D-01  0.302563D-01  0.115833D-01 -0.805665D-01  0.760149D-01
     14  0.159029D-02  0.136005D-02  0.152306D-02  0.752770D-01 -0.224324D+00
     15 -0.265951D-02  0.267387D-02  0.127209D-02  0.472296D-01 -0.971107D-01
     16 -0.208436D-01  0.000000D+00 -0.258504D-01 -0.674093D-01  0.000000D+00
     17  0.000000D+00  0.319752D-03  0.000000D+00  0.000000D+00 -0.428544D-01
     18 -0.736746D-02  0.000000D+00  0.519290D-02 -0.706689D-01  0.150796D-05
     19 -0.153713D-01 -0.302565D-01  0.115831D-01 -0.805667D-01 -0.760153D-01
     20 -0.159014D-02  0.136010D-02 -0.152306D-02 -0.752776D-01 -0.224326D+00
     21 -0.265952D-02 -0.267386D-02  0.127198D-02  0.472284D-01  0.971087D-01
                6             7             8             9            10 
      6  0.493209D+00
      7  0.375675D-02  0.134462D+00
      8  0.341426D-03  0.137892D+00  0.284619D+00
      9  0.312161D-02 -0.115125D-01 -0.159773D-01  0.490157D-02
     10  0.375677D-02  0.998177D-02 -0.138767D-01 -0.771684D-03  0.134462D+00
     11 -0.341434D-03  0.138767D-01 -0.148427D-01 -0.200417D-02 -0.137891D+00
     12  0.312175D-02 -0.771687D-03  0.200417D-02  0.328457D-02 -0.115124D-01
     13  0.469164D-01  0.175754D-02 -0.662204D-03 -0.380233D-03 -0.545710D-02
     14 -0.962686D-01  0.345598D-03  0.924903D-03  0.948234D-03 -0.205240D-03
     15 -0.991390D-01  0.269623D-03 -0.972418D-04  0.293571D-04 -0.101806D-02
     16 -0.844974D-01 -0.771057D-03  0.767786D-04  0.538851D-03 -0.771119D-03
     17  0.151746D-05 -0.251581D-03 -0.649963D-04  0.101531D-02  0.251598D-03
     18 -0.258402D+00 -0.475185D-03  0.364064D-03 -0.693000D-03 -0.475174D-03
     19  0.469152D-01 -0.545712D-02  0.100857D-02  0.843986D-03  0.175756D-02
     20  0.962665D-01  0.205273D-03  0.136263D-02  0.123780D-02 -0.345594D-03
     21 -0.991363D-01 -0.101805D-02 -0.411179D-03  0.377768D-03  0.269613D-03
               11            12            13            14            15 
     11  0.284618D+00
     12  0.159771D-01  0.490182D-02
     13 -0.100856D-02  0.844006D-03  0.915894D-01
     14  0.136262D-02 -0.123781D-02 -0.861208D-01  0.240604D+00
     15  0.411196D-03  0.377700D-03 -0.473705D-01  0.107827D+00  0.105470D+00
     16 -0.767934D-04  0.538824D-03  0.424677D-02 -0.246028D-03  0.105933D-01
     17 -0.649975D-04 -0.101531D-02 -0.912057D-02 -0.405988D-03 -0.265039D-01
     18 -0.364074D-03 -0.693055D-03 -0.454851D-02  0.791504D-05 -0.154753D-01
     19  0.662195D-03 -0.380222D-03  0.380130D-02  0.935916D-02 -0.704440D-02
     20  0.924922D-03 -0.948231D-03 -0.935907D-02 -0.195219D-01  0.127996D-01
     21  0.972428D-04  0.293375D-04 -0.704453D-02 -0.128000D-01  0.746470D-02
               16            17            18            19            20 
     16  0.813015D-01
     17  0.000000D+00  0.434769D-01
     18  0.880836D-01 -0.169042D-05  0.285545D+00
     19  0.424676D-02  0.912063D-02 -0.454837D-02  0.915895D-01
     20  0.245887D-03 -0.406359D-03 -0.769578D-05  0.861212D-01  0.240607D+00
     21  0.105933D-01  0.265040D-01 -0.154749D-01 -0.473692D-01 -0.107825D+00
               21 
     21  0.105467D+00
 Leave Link  703 at Sat Nov 12 22:11:25 2022, MaxMem=   939524096 cpu:       264.0
 (Enter /Local/ce_dana/g09/l716.exe)
 FrcOut:
 IF    =    45 IFX   =    66 IFXYZ =    87
 IFFX  =   108 IFFFX =   339 IFLen =    21
 IFFLen=   231 IFFFLn=     0 IEDerv=   339
 LEDerv=  1061 IFroze=  1651 ICStrt= 18849
 Dipole        = 1.02679096D-01-8.47254531D-09 5.27111103D-02
 DipoleDeriv   = 1.23468224D-01-1.79337486D-07-1.38747192D-02
                -9.12342390D-07 1.06812623D-01-1.32086496D-07
                -7.13056986D-03 1.28728468D-07-4.01408819D-01
                -3.38566365D-04 3.98493372D-08 1.31253523D-03
                 1.23440636D-06 4.62763857D-02-2.28451981D-08
                -5.20164493D-02-2.66522313D-07 1.34449615D-01
                -4.26197646D-02-3.74496099D-02 1.29635471D-02
                -6.74026531D-02-5.37214846D-02 8.98421127D-03
                 1.81938703D-02 1.32051126D-02 1.49548551D-01
                -4.26198652D-02 3.74496175D-02 1.29635710D-02
                 6.74029582D-02-5.37214406D-02-8.98417063D-03
                 1.81938788D-02-1.32051605D-02 1.49548577D-01
                -6.66005470D-03 4.69765808D-02 2.23298513D-02
                 7.27202563D-02-6.41962892D-02-7.65384144D-02
                 5.63459074D-02-7.76906581D-02 3.66257036D-02
                -2.45700282D-02 4.26099758D-07-5.80241134D-02
                 3.85996614D-07 8.27486543D-02 1.40287507D-06
                -8.99313734D-02 1.41056744D-06-1.05391237D-01
                -6.65994452D-03-4.69768750D-02 2.23293279D-02
                -7.27212694D-02-6.41984488D-02 7.65371258D-02
                 5.63447359D-02 7.76894332D-02 3.66276096D-02
 Polarizability= 2.88294803D+01-7.97054767D-06 2.44662153D+01
                 4.34232378D-01-1.28083364D-06 2.22296008D+01
 VibFq2-Diag1:  N=     21 IV=           8 MDV=   939503395 NE2=    44738256
 Full mass-weighted force constant matrix:
 Low frequencies ---  -11.3492   -8.7361   -7.7446    0.0004    0.0005    0.0007
 Low frequencies ---  115.8400  484.3319  819.3725
 OrtVCM:  Ph=1 IPass= 1 DotMx1= 0.00D+00
 OrtVCM:  IS=    1 I=    1 IndO=    1 Dot= 1.00D+00 DotN= 1.00D+00 ElMax1= 6.43D-01 ElMax1N= 6.43D-01
 OrtVCM:  Ph=2 NNew=    0 IAdd=    2 IPass= 1 DotMx2= 0.00D+00
 OrtVCM:  IS=    1 I=    2 IndO=    2 Dot= 1.00D+00 DotN= 1.00D+00 ElMax1= 6.43D-01 ElMax1N= 6.43D-01
 OrtVCM:  Ph=2 NNew=    0 IAdd=    3 IPass= 1 DotMx2= 0.00D+00
 OrtVCM:  IS=    1 I=    3 IndO=    3 Dot= 1.00D+00 DotN= 1.00D+00 ElMax1= 6.43D-01 ElMax1N= 6.43D-01
 OrtVCM:  Ph=2 NNew=    0 IAdd=    4 IPass= 1 DotMx2= 4.16D-17
 OrtVCM:  IS=    1 I=    4 IndO=    4 Dot= 1.00D+00 DotN= 1.00D+00 ElMax1= 4.67D-01 ElMax1N= 4.67D-01
 OrtVCM:  Ph=2 NNew=    0 IAdd=    5 IPass= 1 DotMx2= 5.38D-16
 OrtVCM:  IS=    1 I=    5 IndO=    5 Dot= 1.00D+00 DotN= 1.00D+00 ElMax1= 5.68D-01 ElMax1N= 5.68D-01
 OrtVCM:  Ph=2 NNew=    0 IAdd=    6 IPass= 1 DotMx2= 2.78D-17
 OrtVCM:  IS=    1 I=    6 IndO=    6 Dot= 1.00D+00 DotN= 1.00D+00 ElMax1= 5.47D-01 ElMax1N= 5.47D-01
 OrtVCM:  Ph=1 IPass= 1 DotMx1= 6.43D-01
 OrtVCM:  Ph=1 IPass= 2 DotMx1= 2.70D-16
 OrtVCM:  IS=    1 I=    1 IndO=    7 Dot= 5.87D-01 DotN= 5.87D-01 ElMax1= 5.87D-01 ElMax1N= 5.87D-01
 OrtVCM:  Ph=2 NNew=    0 IAdd=    2 IPass= 1 DotMx2= 4.73D-08
 OrtVCM:  Ph=2 NNew=    0 IAdd=    2 IPass= 2 DotMx2= 1.25D-19
 OrtVCM:  IS=    1 I=    2 IndO=    8 Dot= 2.87D-01 DotN= 2.87D-01 ElMax1= 2.87D-01 ElMax1N= 2.87D-01
 OrtVCM:  Ph=2 NNew=    0 IAdd=    3 IPass= 1 DotMx2= 8.63D-03
 OrtVCM:  Ph=2 NNew=    0 IAdd=    3 IPass= 2 DotMx2= 2.41D-18
 OrtVCM:  IS=    1 I=    3 IndO=    9 Dot= 2.64D-01 DotN= 2.64D-01 ElMax1= 2.81D-01 ElMax1N= 2.81D-01
 OrtVCM:  Ph=2 NNew=    0 IAdd=    4 IPass= 1 DotMx2= 5.39D-01
 OrtVCM:  Ph=2 NNew=    0 IAdd=    4 IPass= 2 DotMx2= 2.68D-17
 OrtVCM:  IS=    1 I=    4 IndO=   10 Dot= 2.96D-01 DotN= 2.96D-01 ElMax1= 2.96D-01 ElMax1N= 2.96D-01
 OrtVCM:  Ph=2 NNew=    0 IAdd=    5 IPass= 1 DotMx2= 2.55D-01
 OrtVCM:  Ph=2 NNew=    0 IAdd=    5 IPass= 2 DotMx2= 2.08D-17
 OrtVCM:  IS=    1 I=    5 IndO=   11 Dot= 2.66D-01 DotN= 2.66D-01 ElMax1= 2.66D-01 ElMax1N= 2.66D-01
 OrtVCM:  Ph=2 NNew=    0 IAdd=    6 IPass= 1 DotMx2= 2.24D-01
 OrtVCM:  Ph=2 NNew=    0 IAdd=    6 IPass= 2 DotMx2= 2.08D-17
 OrtVCM:  IS=    1 I=    6 IndO=   12 Dot= 2.61D-01 DotN= 2.61D-01 ElMax1= 2.61D-01 ElMax1N= 2.61D-01
 OrtVCM:  Ph=2 NNew=    0 IAdd=    7 IPass= 1 DotMx2= 3.75D-01
 OrtVCM:  Ph=2 NNew=    0 IAdd=    7 IPass= 2 DotMx2= 1.67D-16
 OrtVCM:  IS=    1 I=    7 IndO=   13 Dot= 7.18D-01 DotN= 7.18D-01 ElMax1= 7.18D-01 ElMax1N= 7.18D-01
 OrtVCM:  Ph=2 NNew=    0 IAdd=    8 IPass= 1 DotMx2= 5.01D-01
 OrtVCM:  Ph=2 NNew=    0 IAdd=    8 IPass= 2 DotMx2= 1.79D-17
 OrtVCM:  IS=    1 I=    8 IndO=   14 Dot= 5.71D-01 DotN= 5.71D-01 ElMax1= 5.71D-01 ElMax1N= 5.71D-01
 OrtVCM:  Ph=2 NNew=    0 IAdd=    9 IPass= 1 DotMx2= 5.47D-01
 OrtVCM:  Ph=2 NNew=    0 IAdd=    9 IPass= 2 DotMx2= 1.39D-16
 OrtVCM:  IS=    1 I=    9 IndO=   15 Dot= 3.75D-01 DotN= 3.75D-01 ElMax1= 3.75D-01 ElMax1N= 3.75D-01
 OrtVCM:  Ph=2 NNew=    0 IAdd=   10 IPass= 1 DotMx2= 3.75D-01
 OrtVCM:  Ph=2 NNew=    0 IAdd=   10 IPass= 2 DotMx2= 1.11D-16
 OrtVCM:  IS=    1 I=   10 IndO=   16 Dot= 6.78D-01 DotN= 6.78D-01 ElMax1= 6.78D-01 ElMax1N= 6.78D-01
 OrtVCM:  Ph=2 NNew=    0 IAdd=   11 IPass= 1 DotMx2= 5.69D-01
 OrtVCM:  Ph=2 NNew=    0 IAdd=   11 IPass= 2 DotMx2= 1.49D-16
 OrtVCM:  IS=    1 I=   11 IndO=   17 Dot= 1.94D-01 DotN= 1.94D-01 ElMax1= 2.68D-01 ElMax1N= 2.68D-01
 OrtVCM:  Ph=2 NNew=    0 IAdd=   12 IPass= 1 DotMx2= 5.47D-01
 OrtVCM:  Ph=2 NNew=    0 IAdd=   12 IPass= 2 DotMx2= 1.13D-16
 OrtVCM:  IS=    1 I=   12 IndO=   18 Dot= 1.82D-01 DotN= 1.82D-01 ElMax1= 2.93D-01 ElMax1N= 2.93D-01
 OrtVCM:  Ph=2 NNew=    0 IAdd=   13 IPass= 1 DotMx2= 6.09D-01
 OrtVCM:  Ph=2 NNew=    0 IAdd=   13 IPass= 2 DotMx2= 2.26D-16
 OrtVCM:  IS=    1 I=   13 IndO=    0 Dot= 4.91D-05 DotN= 4.91D-05 ElMax1= 4.51D-03 ElMax1N= 4.51D-03
 OrtVCM:  Ph=2 NNew=    0 IAdd=   14 IPass= 1 DotMx2= 4.56D-01
 OrtVCM:  Ph=2 NNew=    0 IAdd=   14 IPass= 2 DotMx2= 3.12D-17
 OrtVCM:  IS=    1 I=   14 IndO=   19 Dot= 5.84D-01 DotN= 5.84D-01 ElMax1= 5.84D-01 ElMax1N= 5.84D-01
 OrtVCM:  Ph=2 NNew=    0 IAdd=   15 IPass= 1 DotMx2= 4.67D-01
 OrtVCM:  Ph=2 NNew=    0 IAdd=   15 IPass= 2 DotMx2= 1.67D-16
 OrtVCM:  IS=    1 I=   15 IndO=   20 Dot= 3.78D-01 DotN= 3.78D-01 ElMax1= 3.78D-01 ElMax1N= 3.78D-01
 SchOr2:  IPass= 1 Test2A= 1.00D-01 IOff=     0 NDo=    15 NNew=    14
 OrtVCM:  Ph=1 IPass= 1 DotMx1= 6.87D-01
 OrtVCM:  Ph=1 IPass= 2 DotMx1= 3.04D-16
 OrtVCM:  IS=    1 I=    1 IndO=    0 Dot= 4.43D-05 DotN= 4.43D-05 ElMax1= 4.06D-03 ElMax1N= 4.06D-03
 SchOr2:  IPass= 1 Test2A= 1.00D-01 IOff=    15 NDo=     1 NNew=     0
 OrtVCM:  Ph=1 IPass= 1 DotMx1= 4.67D-01
 OrtVCM:  Ph=1 IPass= 2 DotMx1= 1.25D-16
 OrtVCM:  IS=    1 I=    1 IndO=   21 Dot= 1.27D-01 DotN= 1.27D-01 ElMax1= 2.18D-01 ElMax1N= 2.18D-01
 SchOr2:  IPass= 1 Test2A= 1.00D-01 IOff=    16 NDo=     1 NNew=     1
 VibFq2-Diag2:  N=     15 IV=           8 MDV=   939503395 NE2=    62633559
 Dipole derivatives wrt mode   1:  6.23046D-06  1.53392D-01  8.07866D-05
 Vibrational polarizability contributions from mode   1       0.0000000       0.0471877       0.0000000
 Vibrational hyperpolarizability contributions from mode   1       0.0000000       0.0000000       0.0000000
 Dipole derivatives wrt mode   2: -6.47864D-01  3.88591D-06 -7.67474D+00
 Vibrational polarizability contributions from mode   2       0.0481520       0.0000000       6.7573112
 Vibrational hyperpolarizability contributions from mode   2      -0.0000000       0.0000000      -0.0000000
 Dipole derivatives wrt mode   3: -5.43700D-06  1.26315D+00  2.31121D-06
 Vibrational polarizability contributions from mode   3       0.0000000       0.0639559       0.0000000
 Vibrational hyperpolarizability contributions from mode   3      -0.0000000       0.0000000       0.0000000
 Dipole derivatives wrt mode   4: -7.54787D-01 -1.24232D-06  4.83769D-02
 Vibrational polarizability contributions from mode   4       0.0155980       0.0000000       0.0000641
 Vibrational hyperpolarizability contributions from mode   4      -0.0000000      -0.0000000       0.0000000
 Dipole derivatives wrt mode   5:  1.97051D-01 -9.85256D-07 -6.36646D-02
 Vibrational polarizability contributions from mode   5       0.0009053       0.0000000       0.0000945
 Vibrational hyperpolarizability contributions from mode   5       0.0000000      -0.0000000      -0.0000000
 Dipole derivatives wrt mode   6: -1.50503D-05  1.43207D+00 -3.40206D-06
 Vibrational polarizability contributions from mode   6       0.0000000       0.0378213       0.0000000
 Vibrational hyperpolarizability contributions from mode   6      -0.0000000       0.0000000      -0.0000000
 Dipole derivatives wrt mode   7: -1.26624D+00  1.58825D-05 -4.45225D-01
 Vibrational polarizability contributions from mode   7       0.0215655       0.0000000       0.0026662
 Vibrational hyperpolarizability contributions from mode   7      -0.0000000       0.0000000      -0.0000000
 Dipole derivatives wrt mode   8:  4.58823D-01 -2.60692D-05  1.76551D+00
 Vibrational polarizability contributions from mode   8       0.0025735       0.0000000       0.0381038
 Vibrational hyperpolarizability contributions from mode   8       0.0000000      -0.0000000       0.0000000
 Dipole derivatives wrt mode   9: -6.14716D-06 -2.43357D+00 -2.48715D-05
 Vibrational polarizability contributions from mode   9       0.0000000       0.0710946       0.0000000
 Vibrational hyperpolarizability contributions from mode   9      -0.0000000      -0.0000000      -0.0000000
 Dipole derivatives wrt mode  10:  3.39062D-01 -4.69459D-06 -1.71736D+00
 Vibrational polarizability contributions from mode  10       0.0013776       0.0000000       0.0353413
 Vibrational hyperpolarizability contributions from mode  10       0.0000000      -0.0000000      -0.0000000
 Dipole derivatives wrt mode  11:  3.65349D+00 -1.07090D-05  3.15376D+00
 Vibrational polarizability contributions from mode  11       0.0403010       0.0000000       0.0300303
 Vibrational hyperpolarizability contributions from mode  11       0.0000000      -0.0000000       0.0000000
 Dipole derivatives wrt mode  12:  2.99263D+00  1.71679D-04 -3.45281D+00
 Vibrational polarizability contributions from mode  12       0.0255278       0.0000000       0.0339821
 Vibrational hyperpolarizability contributions from mode  12       0.0000000       0.0000000      -0.0000000
 Dipole derivatives wrt mode  13: -8.44684D-05  4.37502D+00  1.33163D-04
 Vibrational polarizability contributions from mode  13       0.0000000       0.0529911       0.0000000
 Vibrational hyperpolarizability contributions from mode  13      -0.0000000       0.0000000       0.0000000
 Dipole derivatives wrt mode  14: -3.73857D+00  1.65207D-04  2.15129D-01
 Vibrational polarizability contributions from mode  14       0.0372830       0.0000000       0.0001235
 Vibrational hyperpolarizability contributions from mode  14      -0.0000000       0.0000000       0.0000000
 Dipole derivatives wrt mode  15:  1.46817D-04  3.35703D+00 -7.04240D-06
 Vibrational polarizability contributions from mode  15       0.0000000       0.0282186       0.0000000
 Vibrational hyperpolarizability contributions from mode  15       0.0000000       0.0000000      -0.0000000
 Diagonal vibrational polarizability:
        0.1932835       0.3012693       6.8977168
 NorSel:  MapVib=      1      2      3      4      5      6      7      8      9     10
 NorSel:  MapVib=     11     12     13     14     15
 Harmonic frequencies (cm**-1), IR intensities (KM/Mole), Raman scattering
 activities (A**4/AMU), depolarization ratios for plane and unpolarized
 incident light, reduced masses (AMU), force constants (mDyne/A),
 and normal coordinates:
                      1                      2                      3
                      A                      A                      A
 Frequencies --    115.8393               484.3319               819.3725
 Red. masses --      1.0082                 1.2152                 1.0503
 Frc consts  --      0.0080                 0.1679                 0.4154
 IR Inten    --      0.0235                59.3213                 1.5955
  Atom  AN      X      Y      Z        X      Y      Z        X      Y      Z
     1   6    -0.00  -0.00  -0.00     0.00  -0.00   0.14    -0.00  -0.05   0.00
     2   6     0.00   0.00   0.00     0.00   0.00  -0.00     0.00  -0.04  -0.00
     3   1     0.02   0.02   0.57    -0.06  -0.01  -0.68    -0.46   0.24   0.00
     4   1    -0.02   0.02  -0.57    -0.06   0.01  -0.68     0.46   0.24  -0.00
     5   1     0.00   0.16  -0.29    -0.07   0.00  -0.07     0.41   0.18  -0.04
     6   1    -0.00  -0.37  -0.00     0.18  -0.00  -0.08     0.00   0.21   0.00
     7   1    -0.00   0.16   0.29    -0.07  -0.00  -0.07    -0.41   0.18   0.04
                      4                      5                      6
                      A                      A                      A
 Frequencies --    991.4189              1074.3844              1207.9881
 Red. masses --      1.3326                 3.2805                 1.4717
 Frc consts  --      0.7717                 2.2311                 1.2653
 IR Inten    --      0.5720                 0.0429                 2.0508
  Atom  AN      X      Y      Z        X      Y      Z        X      Y      Z
     1   6    -0.02  -0.00  -0.09     0.33  -0.00  -0.01    -0.00   0.13  -0.00
     2   6     0.02  -0.00   0.14    -0.31  -0.00   0.02    -0.00  -0.16   0.00
     3   1    -0.05   0.02   0.06     0.43  -0.04  -0.03     0.44  -0.13   0.01
     4   1    -0.05  -0.02   0.06     0.43   0.04  -0.03    -0.44  -0.13  -0.01
     5   1    -0.32   0.06  -0.28    -0.44  -0.03  -0.03     0.44   0.12  -0.10
     6   1     0.75   0.00  -0.16    -0.15  -0.00  -0.02     0.00   0.30   0.00
     7   1    -0.32  -0.06  -0.28    -0.44   0.03  -0.03    -0.44   0.12   0.10
                      7                      8                      9
                      A                      A                      A
 Frequencies --   1414.4994              1483.7226              1497.2430
 Red. masses --      1.1923                 1.0961                 1.0343
 Frc consts  --      1.4056                 1.4217                 1.3662
 IR Inten    --      1.8016                 3.3275                 5.9223
  Atom  AN      X      Y      Z        X      Y      Z        X      Y      Z
     1   6     0.02  -0.00   0.00     0.08   0.00  -0.01    -0.00   0.02   0.00
     2   6     0.13  -0.00   0.02    -0.00   0.00  -0.04     0.00   0.04   0.00
     3   1    -0.11   0.06  -0.00    -0.42   0.29   0.03     0.05  -0.01  -0.02
     4   1    -0.11  -0.06  -0.00    -0.42  -0.29   0.03    -0.05  -0.01   0.02
     5   1    -0.46  -0.11  -0.24    -0.14  -0.27   0.35     0.33  -0.05   0.39
     6   1    -0.58   0.00   0.25     0.21  -0.00  -0.10    -0.00  -0.68  -0.00
     7   1    -0.46   0.11  -0.24    -0.14   0.27   0.35    -0.33  -0.05  -0.39
                     10                     11                     12
                      A                      A                      A
 Frequencies --   1498.6008              2985.4919              3072.6538
 Red. masses --      1.1339                 1.0578                 1.0719
 Frc consts  --      1.5004                 5.5548                 5.9623
 IR Inten    --      3.0643                23.2942                20.8777
  Atom  AN      X      Y      Z        X      Y      Z        X      Y      Z
     1   6     0.08   0.00   0.01     0.00   0.00   0.00    -0.00  -0.00  -0.00
     2   6    -0.05  -0.00   0.04     0.04  -0.00   0.06     0.03   0.00  -0.07
     3   1    -0.36   0.26   0.02     0.01   0.00   0.00     0.00  -0.00  -0.00
     4   1    -0.36  -0.26   0.02     0.01  -0.00   0.00     0.00   0.00  -0.00
     5   1     0.26   0.33  -0.32    -0.06   0.15   0.11    -0.25   0.56   0.30
     6   1    -0.15  -0.00   0.06    -0.33   0.00  -0.90     0.10  -0.00   0.23
     7   1     0.26  -0.33  -0.32    -0.06  -0.15   0.11    -0.25  -0.56   0.30
                     13                     14                     15
                      A                      A                      A
 Frequencies --   3117.7782              3176.2648              3278.3356
 Red. masses --      1.1021                 1.0508                 1.1188
 Frc consts  --      6.3119                 6.2462                 7.0845
 IR Inten    --     19.1408                14.0232                11.2696
  Atom  AN      X      Y      Z        X      Y      Z        X      Y      Z
     1   6     0.00  -0.01  -0.00    -0.06   0.00   0.01     0.00   0.10  -0.00
     2   6    -0.00   0.09   0.00     0.00   0.00   0.00    -0.00   0.01   0.00
     3   1     0.02   0.04  -0.01     0.35   0.61  -0.04    -0.36  -0.60   0.04
     4   1    -0.02   0.04   0.01     0.35  -0.61  -0.04     0.36  -0.60  -0.04
     5   1     0.26  -0.57  -0.32    -0.00  -0.00  -0.00     0.02  -0.04  -0.02
     6   1    -0.00   0.03  -0.00     0.00   0.00   0.01    -0.00   0.00  -0.00
     7   1    -0.26  -0.57   0.32    -0.00   0.00  -0.00    -0.02  -0.04   0.02

 -------------------
 - Thermochemistry -
[...]
           vibrations may cause significant error
 Vibrational temperatures:    166.67   696.84  1178.89  1426.43  1545.80
          (Kelvin)           1738.02  2035.15  2134.74  2154.20  2156.15
                             4295.45  4420.86  4485.78  4569.93  4716.79
 
 Zero-point correction=                           0.059729 (Hartree/Particle)
 Thermal correction to Energy=                    0.063679
 Thermal correction to Enthalpy=                  0.064623
 Thermal correction to Gibbs Free Energy=         0.035583
 Sum of electronic and zero-point Energies=            -79.041009
 Sum of electronic and thermal Energies=               -79.037059
 Sum of electronic and thermal Enthalpies=             -79.036115
 Sum of electronic and thermal Free Energies=          -79.065156
 
                     E (Thermal)             CV                S
                      KCal/Mol        Cal/Mol-Kelvin    Cal/Mol-Kelvin
 Total                   39.959             11.023             61.122
 Electronic               0.000              0.000              1.377
 Translational            0.889              2.981             36.032
 Rotational               0.889              2.981             19.393
 Vibrational             38.182              5.061              4.319
 Vibration     1          0.608              1.936              3.169
 Vibration     2          0.840              1.285              0.698
                       Q            Log10(Q)             Ln(Q)
 Total Bot       0.429753D-16        -16.366781        -37.685907
 Total V=0       0.127795D+12         11.106514         25.573693
 Vib (Bot)       0.904416D-27        -27.043632        -62.270263
 Vib (Bot)    1  0.176582D+01          0.246946          0.568614
 Vib (Bot)    2  0.344029D+00         -0.463405         -1.067030
 Vib (V=0)       0.268945D+01          0.429664          0.989337
 Vib (V=0)    1  0.233524D+01          0.368332          0.848115
 Vib (V=0)    2  0.110692D+01          0.044117          0.101584
 Electronic      0.200000D+01          0.301030          0.693147
 Translational   0.615078D+07          6.788931         15.632090
 Rotational      0.386269D+04          3.586890          8.259119
 
                                                                 C2H5
                                                             IR Spectrum
 
     3   3  33   2                                                       111  1       1    1                                         
     2   1  10   9                                                       444  4       2    0  9      8            4             1    
     7   7  17   8                                                       998  1       0    7  9      1            8             1    
     8   6  83   5                                                       974  4       8    4  1      9            4             6    
 
     X   X  XX   X                                                       XXX  X       X       X      X            X                  
     X   X  XX   X                                                        X                                       X                  
     X   X  XX   X                                                                                                X                  
     X   X  XX   X                                                                                                X                  
         X  XX   X                                                                                                X                  
            XX   X                                                                                                X                  
             X   X                                                                                                X                  
                 X                                                                                                X                  
                                                                                                                  X                  
                                                                                                                  X                  
                                                                                                                  X                  
                                                                                                                  X                  
                                                                                                                  X                  
                                                                                                                  X                  
                                                                                                                  X                  
                                                                                                                  X                  
                                                                                                                  X                  
                                                                                                                  X                  
                                                                                                                  X                  
                                                                                                                  X                  
 
 Forces in standard orientation:
 -------------------------------------------------------------------
 Center     Atomic                   Forces (Hartrees/Bohr)
 Number     Number              X              Y              Z
 -------------------------------------------------------------------
      1        6           0.000000262   -0.000000702   -0.000000026
      2        6          -0.000000528   -0.000000222   -0.000000308
      3        1           0.000000127    0.000000170   -0.000000083
      4        1          -0.000000166    0.000000444   -0.000000064
      5        1          -0.000000017    0.000000089    0.000000084
      6        1           0.000000125    0.000000046    0.000000387
      7        1           0.000000197    0.000000175    0.000000011
 -------------------------------------------------------------------
 ***** Axes restored to original set *****
 Rotating derivatives, DoTrsp=F IDiff=-2 LEDeriv=   1060 LFDPrp=       0 LDFDPr=       0.
 -------------------------------------------------------------------
 Center     Atomic                   Forces (Hartrees/Bohr)
 Number     Number              X              Y              Z
 -------------------------------------------------------------------
      1        6           0.000000226    0.000000705   -0.000000115
      2        6          -0.000000518    0.000000142   -0.000000368
      3        1           0.000000141   -0.000000172   -0.000000050
      4        1          -0.000000138   -0.000000458   -0.000000006
      5        1          -0.000000018   -0.000000077    0.000000095
      6        1           0.000000102    0.000000019    0.000000396
      7        1           0.000000205   -0.000000159    0.000000048
 -------------------------------------------------------------------
 Cartesian Forces:  Max     0.000000705 RMS     0.000000269
 Z-matrix is all fixed cartesians, so copy forces.
 Force constants in Cartesian coordinates: 
                1             2             3             4             5 
      1  0.555428D+00
      2 -0.169845D-02  0.626279D+00
      3  0.177117D-01 -0.851902D-01  0.699669D-01
      4 -0.240371D+00 -0.988626D-02 -0.131496D-01  0.490608D+00
      5 -0.886910D-02 -0.886578D-01  0.610152D-02 -0.745277D-02  0.569078D+00
      6 -0.642665D-02  0.645253D-02 -0.442431D-01 -0.213670D-01 -0.130634D-01
      7 -0.145632D+00  0.133147D+00 -0.179938D-01 -0.100433D-01  0.245460D-01
      8  0.134627D+00 -0.259562D+00  0.324351D-01 -0.457862D-02  0.627722D-02
      9 -0.163712D-01  0.280457D-01 -0.136021D-01 -0.434968D-03  0.453330D-02
     10 -0.119232D+00 -0.117878D+00  0.194158D-01 -0.783751D-02 -0.250410D-01
     11 -0.118881D+00 -0.280862D+00  0.464304D-01  0.294150D-02  0.280672D-02
     12  0.209470D-01  0.509845D-01 -0.187020D-01 -0.104767D-02 -0.499399D-02
     13 -0.142131D-01 -0.288996D-01  0.150243D-01 -0.787114D-01 -0.673992D-01
     14 -0.279462D-02 -0.113520D-02 -0.640627D-03 -0.665762D-01 -0.201488D+00
     15 -0.315296D-02 -0.438736D-02  0.260904D-02  0.537958D-01  0.110725D+00
     16 -0.185227D-01 -0.505507D-02 -0.269127D-01 -0.580895D-01 -0.114457D-01
     17 -0.229416D-02  0.519358D-04 -0.978556D-03 -0.938006D-02 -0.489075D-01
     18 -0.866195D-02 -0.256553D-04  0.313980D-02 -0.567487D-01 -0.360641D-01
     19 -0.174572D-01  0.302701D-01  0.590427D-02 -0.955551D-01  0.956617D-01
     20 -0.900630D-04  0.388653D-02  0.184229D-02  0.949324D-01 -0.239109D+00
     21 -0.404594D-02  0.412046D-02  0.831447D-03  0.389521D-01 -0.672384D-01
                6             7             8             9            10 
      6  0.492462D+00
      7 -0.686139D-03  0.150082D+00
      8 -0.879188D-03 -0.144448D+00  0.266005D+00
      9  0.269039D-02  0.184681D-01 -0.328461D-01  0.789536D-02
     10  0.675388D-02  0.998752D-02  0.150303D-01 -0.266366D-02  0.121529D+00
     11  0.812705D-03 -0.125940D-01 -0.143791D-01  0.373823D-02  0.128363D+00
     12  0.395520D-02  0.162927D-02  0.154994D-02  0.281525D-02 -0.220739D-01
     13  0.536453D-01  0.173606D-02  0.656034D-03 -0.318789D-03 -0.546256D-02
     14  0.109918D+00 -0.182433D-03  0.804241D-03 -0.109843D-02 -0.431609D-03
     15 -0.123830D+00  0.406597D-03  0.425281D-04  0.171500D-03 -0.132751D-02
     16 -0.704034D-01 -0.786588D-03 -0.175352D-05  0.591094D-03 -0.759430D-03
     17 -0.367770D-01  0.207874D-03 -0.268697D-03 -0.103153D-02 -0.423721D-03
     18 -0.261668D+00 -0.497593D-03 -0.456185D-03 -0.473769D-03 -0.440450D-03
     19  0.384841D-01 -0.534340D-02 -0.128477D-02  0.729404D-03  0.177432D-02
     20 -0.664633D-01 -0.676359D-03  0.112330D-02 -0.134114D-02  0.381447D-03
     21 -0.693659D-01 -0.132641D-02  0.153876D-03  0.503379D-03  0.335912D-03
               11            12            13            14            15 
     11  0.289808D+00
     12 -0.503425D-01  0.126443D-01
     13  0.733084D-03  0.293990D-03  0.886159D-01
     14  0.150681D-02  0.109462D-02  0.777969D-01  0.215576D+00
     15 -0.592407D-03  0.238971D-03 -0.548015D-01 -0.121914D+00  0.133472D+00
     16  0.888616D-04  0.473414D-03  0.336651D-02  0.199732D-02  0.102568D-01
     17  0.107895D-03  0.902356D-03  0.699188D-02  0.372219D-02  0.247850D-01
     18  0.222459D-03 -0.877636D-03 -0.438278D-02 -0.299341D-02 -0.187232D-01
     19 -0.651139D-03 -0.222066D-03  0.466858D-02 -0.980928D-02 -0.517724D-02
     20  0.101160D-02  0.805100D-03  0.101210D-01 -0.189861D-01 -0.865847D-02
     21 -0.268848D-03 -0.741068D-04 -0.946055D-02  0.156345D-01  0.606163D-02
               16            17            18            19            20 
     16  0.706405D-01
     17  0.124483D-01  0.503295D-01
     18  0.729135D-01  0.410020D-01  0.289354D+00
     19  0.415114D-02 -0.755007D-02 -0.218207D-02  0.107762D+00
     20  0.196807D-02 -0.503524D-02 -0.168508D-02 -0.106637D+00  0.257108D+00
     21  0.130813D-01 -0.279022D-01 -0.107504D-01 -0.375364D-01  0.755006D-01
               21 
     21  0.727939D-01
 Final forces over variables, Energy=-7.91007380D+01:
  2.26117640D-07-5.17988173D-07 1.41023018D-07-1.38103947D-07
 -1.78548726D-08 1.01746474D-07 2.05059896D-07 7.04850846D-07
  1.41889094D-07-1.72407849D-07-4.57745540D-07-7.66210753D-08
  1.88366822D-08-1.58802164D-07-1.15462949D-07-3.67632971D-07
 -4.96637455D-08-6.19032090D-09 9.50271440D-08 3.95869992D-07
  4.80528663D-08
 Leave Link  716 at Sat Nov 12 22:11:25 2022, MaxMem=   939524096 cpu:         0.1
 (Enter /Local/ce_dana/g09/l103.exe)

 GradGradGradGradGradGradGradGradGradGradGradGradGradGradGradGradGradGrad
 Berny optimization.
 Search for a local minimum.
 Step number   1 out of a maximum of    2
 All quantities printed in internal units (Hartrees-Bohrs-Radians)
 Second derivative matrix not updated -- analytic derivatives used.
 ITU=  0
     Eigenvalues ---    0.00051   0.01724   0.02973   0.06954   0.08469
     Eigenvalues ---    0.09266   0.11160   0.13252   0.13913   0.27104
     Eigenvalues ---    0.48361   0.66926   0.70879   0.86416   0.87036
 Angle between quadratic step and forces=  85.25 degrees.
 Linear search not attempted -- first point.
 TrRot= -0.000000  0.000000  0.000000  0.000000 -0.000000  0.000000
 Variable       Old X    -DE/DX   Delta X   Delta X   Delta X     New X
                                 (Linear)    (Quad)   (Total)
    X1        1.62092   0.00000   0.00000  -0.00000  -0.00000   1.62092
    Y1        0.10733   0.00000   0.00000   0.00000   0.00000   0.10733
    Z1        0.16020  -0.00000   0.00000   0.00000   0.00000   0.16020
    X2       -1.17169  -0.00000   0.00000  -0.00000  -0.00000  -1.17169
    Y2       -0.06785   0.00000   0.00000  -0.00000  -0.00000  -0.06785
    Z2       -0.03403  -0.00000   0.00000  -0.00000  -0.00000  -0.03403
    X3        2.76406   0.00000   0.00000   0.00000  -0.00000   2.76406
    Y3       -1.57051  -0.00000   0.00000   0.00000   0.00000  -1.57051
    Z3        0.36020  -0.00000   0.00000   0.00001   0.00001   0.36021
    X4        2.58407  -0.00000   0.00000   0.00000   0.00000   2.58407
    Y4        1.87677  -0.00000   0.00000  -0.00000  -0.00000   1.87677
    Z4       -0.16127  -0.00000   0.00000  -0.00001  -0.00001  -0.16128
    X5       -1.91871  -0.00000   0.00000   0.00000   0.00000  -1.91871
    Y5       -1.62936  -0.00000   0.00000  -0.00001  -0.00001  -1.62936
    Z5        1.08548   0.00000   0.00000  -0.00001  -0.00001   1.08547
    X6       -1.78735   0.00000   0.00000   0.00000   0.00000  -1.78735
    Y6       -0.39584   0.00000   0.00000   0.00001   0.00001  -0.39583
    Z6       -1.98965   0.00000   0.00000  -0.00000  -0.00000  -1.98965
    X7       -2.09097   0.00000   0.00000   0.00000  -0.00000  -2.09097
    Y7        1.66986  -0.00000   0.00000  -0.00000  -0.00000   1.66985
    Z7        0.58639   0.00000   0.00000   0.00001   0.00001   0.58639
         Item               Value     Threshold  Converged?
 Maximum Force            0.000001     0.000450     YES
 RMS     Force            0.000000     0.000300     YES
 Maximum Displacement     0.000014     0.001800     YES
 RMS     Displacement     0.000005     0.001200     YES
 Predicted change in Energy=-1.133661D-12
 Optimization completed.
    -- Stationary point found.
 GradGradGradGradGradGradGradGradGradGradGradGradGradGradGradGradGradGrad

 Leave Link  103 at Sat Nov 12 22:11:25 2022, MaxMem=   939524096 cpu:         0.0
 (Enter /Local/ce_dana/g09/l9999.exe)

 Test job not archived.
 1\1\GINC-TECH-WN226\Freq\UB2PLYPD3-FC\def2TZVP\C2H5(2)\ALONGD\12-Nov-2
 022\0\\#P guess=read ub2plypd3/def2tzvp freq IOp(7/33=1) scf=(tight, d
 irect) integral=(grid=ultrafine, Acc2E=12) IOp(2/9=2000) scf=xqc\\C2H5
 \\0,2\C,0.857752,0.056797,0.084773\C,-0.6200310003,-0.0359069943,-0.01
 80060009\H,1.462675,-0.831079,0.190609\H,1.36743,0.993146,-0.085338\H,
 -1.015338,-0.862219,0.574409\H,-0.945824,-0.209467,-1.052875\H,-1.1064
 92,0.88365,0.310302\\Version=ES64L-G09RevD.01\State=2-A\HF=-78.9972924
 \MP2=-79.100738\S2=0.756649\S2-1=0.\S2A=0.750029\RMSD=5.474e-09\RMSF=2
 .688e-07\ZeroPoint=0.0597288\Thermal=0.0636792\Dipole=-0.0988941,-0.01
 39158,-0.0578599\DipoleDeriv=0.1225631,0.0038433,0.0199693,0.0048513,0
 .0958657,-0.0740421,0.0266286,-0.0736947,-0.3895568,0.0036447,-0.00325
 71,-0.0068171,-0.0112239,0.0475342,0.012189,-0.059476,0.0094399,0.1292
 085,-0.0493176,0.0381106,-0.0051884,0.0682205,-0.0459982,0.0252137,-0.
 0041389,0.0193277,0.1485231,-0.0383947,-0.0370035,0.0056972,-0.0655512
 ,-0.0521548,0.0352782,0.0149769,0.0417036,0.1437568,-0.0050651,-0.0460
 245,0.0226001,-0.0662911,-0.0460828,0.0857876,0.0598757,0.090365,0.016
 9172,-0.0150313,-0.0127794,-0.0507299,-0.0175453,0.0770388,-0.0316889,
 -0.0822363,-0.0333339,-0.1092202,-0.0183992,0.0571106,0.0144689,0.0875
 397,-0.0762029,-0.0527375,0.04437,-0.0538076,0.0603714\Polar=28.733603
 4,0.3462446,24.4423013,0.8159741,-0.2776034,22.3493916\PG=C01 [X(C2H5)
 ]\NImag=0\\0.55542785,-0.00169845,0.62627888,0.01771170,-0.08519016,0.
 06996692,-0.24037097,-0.00988626,-0.01314957,0.49060772,-0.00886910,-0
 .08865777,0.00610152,-0.00745277,0.56907784,-0.00642665,0.00645253,-0.
 04424313,-0.02136705,-0.01306345,0.49246219,-0.14563240,0.13314733,-0.
 01799383,-0.01004330,0.02454603,-0.00068614,0.15008211,0.13462725,-0.2
 5956241,0.03243514,-0.00457862,0.00627722,-0.00087919,-0.14444847,0.26
 600548,-0.01637119,0.02804569,-0.01360212,-0.00043497,0.00453330,0.002
 69039,0.01846811,-0.03284611,0.00789536,-0.11923154,-0.11787803,0.0194
 1576,-0.00783751,-0.02504095,0.00675388,0.00998752,0.01503033,-0.00266
 366,0.12152919,-0.11888087,-0.28086197,0.04643039,0.00294150,0.0028067
 2,0.00081271,-0.01259398,-0.01437914,0.00373823,0.12836253,0.28980809,
 0.02094699,0.05098450,-0.01870196,-0.00104767,-0.00499399,0.00395520,0
 .00162927,0.00154994,0.00281525,-0.02207393,-0.05034252,0.01264429,-0.
 01421307,-0.02889962,0.01502434,-0.07871141,-0.06739919,0.05364529,0.0
 0173606,0.00065603,-0.00031879,-0.00546256,0.00073308,0.00029399,0.088
 61589,-0.00279462,-0.00113520,-0.00064063,-0.06657624,-0.20148794,0.10
 991775,-0.00018243,0.00080424,-0.00109843,-0.00043161,0.00150681,0.001
 09462,0.07779686,0.21557600,-0.00315296,-0.00438736,0.00260904,0.05379
 580,0.11072511,-0.12383037,0.00040660,0.00004253,0.00017150,-0.0013275
 1,-0.00059241,0.00023897,-0.05480149,-0.12191442,0.13347239,-0.0185226
 9,-0.00505507,-0.02691266,-0.05808946,-0.01144568,-0.07040344,-0.00078
 659,-0.00000175,0.00059109,-0.00075943,0.00008886,0.00047341,0.0033665
 1,0.00199732,0.01025681,0.07064052,-0.00229416,0.00005194,-0.00097856,
 -0.00938006,-0.04890755,-0.03677701,0.00020787,-0.00026870,-0.00103153
 ,-0.00042372,0.00010790,0.00090236,0.00699188,0.00372219,0.02478502,0.
 01244825,0.05032946,-0.00866195,-0.00002566,0.00313980,-0.05674869,-0.
 03606408,-0.26166840,-0.00049759,-0.00045619,-0.00047377,-0.00044045,0
 .00022246,-0.00087764,-0.00438278,-0.00299341,-0.01872317,0.07291354,0
 .04100196,0.28935353,-0.01745717,0.03027009,0.00590427,-0.09555507,0.0
 9566166,0.03848411,-0.00534340,-0.00128477,0.00072940,0.00177432,-0.00
 065114,-0.00022207,0.00466858,-0.00980928,-0.00517724,0.00415114,-0.00
 755007,-0.00218207,0.10776161,-0.00009006,0.00388653,0.00184229,0.0949
 3245,-0.23910853,-0.06646334,-0.00067636,0.00112330,-0.00134114,0.0003
 8145,0.00101160,0.00080510,0.01012096,-0.01898610,-0.00865847,0.001968
 07,-0.00503524,-0.00168508,-0.10663650,0.25710843,-0.00404594,0.004120
 46,0.00083145,0.03895214,-0.06723842,-0.06936588,-0.00132641,0.0001538
 8,0.00050338,0.00033591,-0.00026885,-0.00007411,-0.00946055,0.01563452
 ,0.00606163,0.01308125,-0.02790223,-0.01075037,-0.03753640,0.07550064,
 0.07279389\\-0.00000023,-0.00000070,0.00000012,0.00000052,-0.00000014,
 0.00000037,-0.00000014,0.00000017,0.00000005,0.00000014,0.00000046,0.,
 0.00000002,0.00000008,-0.00000010,-0.00000010,-0.00000002,-0.00000040,
 -0.00000021,0.00000016,-0.00000005\\\@


 THE CHYMISTS ARE A STRANGE CLASS OF MORTALS IMPELLED
 BY AN ALMOST INSANE IMPULSE TO SEEK THEIR PLEASURE
 AMONG SMOKE AND VAPOR, SOOT AND FLAME, POISONS AND
 POVERTY; YET AMONG ALL THESE EVILS I SEEM TO LIVE
 SO SWEETLY, THAT I MAY DIE IF I WOULD CHANGE PLACES
 WITH THE PERSIAN KING.
   --  JOHANN JOACHIM BECHER, 1635-1682
 ACTA LABORATORII CHYMICA MONACENSIS, 1669
 Job cpu time:       0 days  0 hours 25 minutes 21.5 seconds.
 File lengths (MBytes):  RWF=    772 Int=      0 D2E=      0 Chk=      2 Scr=      1
 Normal termination of Gaussian 09 at Sat Nov 12 22:11:25 2022.
