
Running Job 1 of 2 dimetpropoxy.in
qchem dimetpropoxy.in_4135.0 /scratch/edames/qchem4135/ 8
/opt/qchem/bin/mpi/mpirun_qchem -machinefile /tmp/320656.1.normal1/hostfile -np 8 /opt/qchem/exe/qcprog.exe dimetpropoxy.in_4135.0 /scratch/edames/qchem4135/

Process 0 of 8 is on node24.cluster - thread support 0
Process 4 of 8 is on node24.cluster - thread support 0
Process 3 of 8 is on node24.cluster - thread support 0
Process 1 of 8 is on node24.cluster - thread support 0
Process 5 of 8 is on node24.cluster - thread support 0
Process 2 of 8 is on node24.cluster - thread support 0
Process 6 of 8 is on node24.cluster - thread support 0
Process 7 of 8 is on node24.cluster - thread support 0
initial socket setup ...start
initial socket setup ...done 
now start server 0 ... 
set process cleaner
set process cleaner
set process cleaner
set process cleaner
set process cleaner
set process cleaner
                  Welcome to Q-Chem
     A Quantum Leap Into The Future Of Chemistry


 Q-Chem 4.2, Q-Chem, Inc., Pleasanton, CA (2014).

 Y. Shao,  Z. Gan,  E. Epifanovsky,  A. T. B. Gilbert,  M. Wormit,  
 J. Kussmann,  A. W. Lange,  A. Behn,  J. Deng,  X. Feng,  D. Ghosh,  
 M. Goldey,  P. R. Horn,  L. D. Jacobson,  I. Kaliman,  R. Z. Khaliullin,  
 T. Kus,  A. Landau,  J. Liu,  E. I. Proynov,  Y. M. Rhee,  R. M. Richard,  
 M. A. Rohrdanz,  R. P. Steele,  E. J. Sundstrom,  H. L. Woodcock III,  
 P. M. Zimmerman,  D. Zuev,  B. Albrecht,  E. Alguire,  B. Austin,  
 G. J. O. Beran,  Y. A. Bernard,  E. Berquist,  K. Brandhorst,  
 K. B. Bravaya,  S. T. Brown,  D. Casanova,  C.-M. Chang,  Y. Chen,  
 S. H. Chien,  K. D. Closser,  D. L. Crittenden,  M. Diedenhofen,  
 R. A. DiStasio Jr.,  H. Do,  A. D. Dutoi,  R. G. Edgar,  S. Fatehi,  
 L. Fusti-Molnar,  A. Ghysels,  A. Golubeva-Zadorozhnaya,  J. Gomes,  
 M. W. D. Hanson-Heine,  P. H. P. Harbach,  A. W. Hauser,  E. G. Hohenstein,  
 Z. C. Holden,  T.-C. Jagau,  H. Ji,  B. Kaduk,  K. Khistyaev,  Jaehoon Kim,  
 Jihan Kim,  R. A. King,  P. Klunzinger,  D. Kosenkov,  T. Kowalczyk,  
 C. M. Krauter,  K. U. Lao,  A. Laurent,  K. V. Lawler,  S. V. Levchenko,  
 C. Y. Lin,  F. Liu,  E. Livshits,  R. C. Lochan,  A. Luenser,  P. Manohar,  
 S. F. Manzer,  S.-P. Mao,  N. Mardirossian,  A. V. Marenich,  S. A. Maurer,  
 N. J. Mayhall,  C. M. Oana,  R. Olivares-Amaya,  D. P. O'Neill,  
 J. A. Parkhill,  T. M. Perrine,  R. Peverati,  P. A. Pieniazek,  A. Prociuk,  
 D. R. Rehn,  E. Rosta,  N. J. Russ,  N. Sergueev,  S. M. Sharada,  
 S. Sharma,  D. W. Small,  A. Sodt,  T. Stein,  D. Stuck,  Y.-C. Su,  
 A. J. W. Thom,  T. Tsuchimochi,  L. Vogt,  O. Vydrov,  T. Wang,  
 M. A. Watson,  J. Wenzel,  A. White,  C. F. Williams,  V. Vanovschi,  
 S. Yeganeh,  S. R. Yost,  Z.-Q. You,  I. Y. Zhang,  X. Zhang,  Y. Zhao,  
 B. R. Brooks,  G. K. L. Chan,  D. M. Chipman,  C. J. Cramer,  
 W. A. Goddard III,  M. S. Gordon,  W. J. Hehre,  A. Klamt,  
 H. F. Schaefer III,  M. W. Schmidt,  C. D. Sherrill,  D. G. Truhlar,  
 A. Warshel,  X. Xu,  A. Aspuru-Guzik,  R. Baer,  A. T. Bell,  N. A. Besley,  
 J.-D. Chai,  A. Dreuw,  B. D. Dunietz,  T. R. Furlani,  S. R. Gwaltney,  
 C.-P. Hsu,  Y. Jung,  J. Kong,  D. S. Lambrecht,  W. Liang,  C. Ochsenfeld,  
 V. A. Rassolov,  L. V. Slipchenko,  J. E. Subotnik,  T. Van Voorhis,  
 J. M. Herbert,  A. I. Krylov,  P. M. W. Gill,  M. Head-Gordon

 Contributors to earlier versions of Q-Chem not listed above: 
 R. D. Adamson,  J. Baker,  E. F. C. Byrd,  A. K. Chakraborty,  C.-L. Cheng,  
 H. Dachsel,  R. J. Doerksen,  G. Hawkins,  A. Heyden,  S. Hirata,  
 G. Kedziora,  F. J. Keil,  C. Kelley,  P. P. Korambath,  W. Kurlancheek,  
 A. M. Lee,  M. S. Lee,  D. Liotard,  I. Lotan,  P. E. Maslen,  N. Nair,  
 D. Neuhauser,  R. Olson,  B. Peters,  J. Ritchie,  N. E. Schultz,  
 N. Shenvi,  A. C. Simmonett,  K. S. Thanthiriwatte,  Q. Wu,  W. Zhang

 Q-Chem 4.2.0 for Intel X86 Linux

 Parts of Q-Chem use Armadillo 4.100.2 (Dirt Cruiser).
 http://arma.sourceforge.net/

 Q-Chem begins on Mon Jul 14 12:57:10 2014  

Host: 
0

     Scratch files written to /scratch/edames/qchem4135.0//
 May2514 8580_ilyak 4150   
 Parallel job on  8  processors
Processing $rem in /opt/qchem/config/preferences.
 MEM_TOTAL  2000 
Warning: disabling incdft.
 Q-Chem warning in module /home/scratch/svnadmin/8580_ilyak/qchem/forms1/BasisType.C, line 1209:

 Setting pure/cartesian flag to 2111 for general basis


Finally everything over in PARseQInput

--------------------------------------------------------------
User input:
--------------------------------------------------------------
$rem
XC_GRID 000075000434
JOBTYPE opt
EXCHANGE M08SO
SCF_ALGORITHM DIIS_GDM
BASIS gen
GUI=2
UNRESTRICTED TRUE
CORRELATION NONE
$end

$comment
c5h11o-2
$end

$molecule
0 2
C        1.07821       -0.39495       -0.33846
C        2.53589       -0.10631        0.02748
C        3.02133        1.12400       -0.74920
C        2.72762        0.08783        1.54722
C        2.34991       -1.13608        2.37465
O        4.09501        0.39247        1.82794
H        0.94390       -0.41669       -1.42536
H        0.40938        0.37156        0.06793
H        0.75657       -1.36771        0.04537
H        3.15168       -0.95394       -0.30092
H        2.44060        2.01388       -0.48386
H        2.92102        0.96386       -1.82829
H        4.07689        1.33327       -0.54853
H        2.13439        0.94389        1.88871
H        2.96557       -1.99973        2.10010
H        1.29617       -1.40299        2.26115
H        2.53753       -0.94463        3.43719
$end

$basis
H  0
S  3 1.00
3.386500000000E+01 2.549380000000E-02
5.094790000000E+00 1.903730000000E-01
1.158790000000E+00 8.521610000000E-01
S  1 1.00
3.258400000000E-01 1.000000000000E+00
S  1 1.00
1.027410000000E-01 1.000000000000E+00
S  1 1.00
3.600000000000E-02 1.000000000000E+00
P  1 1.00
1.500000000000E+00 1.000000000000E+00
P  1 1.00
3.750000000000E-01 1.000000000000E+00
****
C 0
S  6 1.00
4.563240000000E+03 1.966650000000E-03
6.820240000000E+02 1.523060000000E-02
1.549730000000E+02 7.612690000000E-02
4.445530000000E+01 2.608010000000E-01
1.302900000000E+01 6.164620000000E-01
1.827730000000E+00 2.210060000000E-01
S  3 1.00
2.096420000000E+01 1.146600000000E-01
4.803310000000E+00 9.199990000000E-01
1.459330000000E+00 -3.030680000000E-03
S  1 1.00
4.834560000000E-01 1.000000000000E+00
S  1 1.00
1.455850000000E-01 1.000000000000E+00
S  1 1.00
4.380000000000E-02 1.000000000000E+00
P  3 1.00
2.096420000000E+01 4.024870000000E-02
4.803310000000E+00 2.375940000000E-01
1.459330000000E+00 8.158540000000E-01
P  1 1.00
4.834560000000E-01 1.000000000000E+00
P  1 1.00
1.455850000000E-01 1.000000000000E+00
P  1 1.00
4.380000000000E-02 1.000000000000E+00
D  1 1.00
1.252000000000E+00 1.000000000000E+00
D  1 1.00
3.130000000000E-01 1.000000000000E+00
F  1 1.00
8.000000000000E-01 1.000000000000E+00
****
O  0
S  6 1.00
8.588500000000E+03 1.895150000000E-03
1.297230000000E+03 1.438590000000E-02
2.992960000000E+02 7.073200000000E-02
8.737710000000E+01 2.400010000000E-01
2.567890000000E+01 5.947970000000E-01
3.740040000000E+00 2.808020000000E-01
S  3 1.00
4.211750000000E+01 1.138890000000E-01
9.628370000000E+00 9.208110000000E-01
2.853320000000E+00 -3.274470000000E-03
S  1 1.00
9.056610000000E-01 1.000000000000E+00
S  1 1.00
2.556110000000E-01 1.000000000000E+00
S  1 1.00
8.450000000000E-02 1.000000000000E+00
P  3 1.00
4.211750000000E+01 3.651140000000E-02
9.628370000000E+00 2.371530000000E-01
2.853320000000E+00 8.197020000000E-01
P  1 1.00
9.056610000000E-01 1.000000000000E+00
P  1 1.00
2.556110000000E-01 1.000000000000E+00
P  1 1.00
8.450000000000E-02 1.000000000000E+00
D  1 1.00
2.584000000000E+00 1.000000000000E+00
D  1 1.00
6.460000000000E-01 1.000000000000E+00
F  1 1.00
1.400000000000E+00 1.000000000000E+00
****
$end

--------------------------------------------------------------
 ----------------------------------------------------------------
             Standard Nuclear Orientation (Angstroms)
    I     Atom           X                Y                Z
 ----------------------------------------------------------------
    1      C      -1.2722701804    -1.4087106684     0.0782005491
    2      C      -0.6539346788    -0.0690061560    -0.3278895179
    3      C      -1.6176992900     1.0672831297     0.0361859491
    4      C       0.7313552956     0.1526584018     0.3170111805
    5      C       1.7671228199    -0.8940748419    -0.0789636787
    6      O       1.2436553912     1.4311049919    -0.0631040495
    7      H      -2.2978729092    -1.4965858123    -0.2963397230
    8      H      -1.3016730460    -1.5163919692     1.1679547370
    9      H      -0.7059293335    -2.2495329686    -0.3332793176
   10      H      -0.5417321671    -0.0541407600    -1.4200022032
   11      H      -1.7917467823     1.1074884059     1.1167552754
   12      H      -2.5854584806     0.9259407987    -0.4573792830
   13      H      -1.2290839188     2.0395605624    -0.2830694073
   14      H       0.6343386036     0.1606101055     1.4087531411
   15      H       1.9336101070    -0.8903419543    -1.1618183824
   16      H       1.4765284517    -1.9012388523     0.2303367497
   17      H       2.7323325477    -0.6631066820     0.3856539157
 ----------------------------------------------------------------
 Molecular Point Group                 C1    NOp =  1
 Largest Abelian Subgroup              C1    NOp =  1
 Nuclear Repulsion Energy =   251.9002771050 hartrees
 There are       25 alpha and       24 beta electrons
 Requested basis set is non-standard
 There are 138 shells and 314 basis functions

Total QAlloc Memory Limit   2000 MB
Mega-Array Size        61 MB
MEM_STATIC part        62 MB
 A cutoff of  1.0D-12 yielded   9194 shell pairs
 There are     47700 function pairs (     57415 Cartesian)
 Smallest overlap matrix eigenvalue = 1.57E-05

  Scale SEOQF with 1.000000e-01/1.000000e-01/1.000000e-01

 Standard Electronic Orientation quadrupole field applied
 Nucleus-field energy     =     0.0000000067 hartrees
 Guess MOs from core Hamiltonian diagonalization
 An unrestricted hybrid HF-DFT SCF calculation will be
 performed using Pulay DIIS + Geometric Direct Minimization
 Exchange:     0.5679 Hartree-Fock + 1.0000 M08SO
 SCF converges when RMS gradient is below 1.0E-08
 ---------------------------------------
  Cycle       Energy         DIIS Error
 ---------------------------------------
    1    -183.8890222920      9.59E-02
    2    -195.0321236766      4.39E-02
    3    -202.1549646545      6.47E-02
    4    -246.5302130663      3.62E-02
    5    -267.1346450716      1.75E-02
    6    -269.2820396447      1.27E-02
    7    -272.0300437813      3.62E-03 Done DIIS. Switching to GDM
    8    -272.1153188039      1.40E-01 Descent step
    9    -272.1875558721      1.96E-02 Normal BFGS step
   10    -272.1982596464      1.08E-02 Normal BFGS step
   11    -272.1986602405      3.84E-03 Normal BFGS step
   12    -272.1989228431      1.85E-03 Normal BFGS step
   13    -272.1989396311      4.64E-04 Normal BFGS step
   14    -272.1989408657      1.50E-04 Normal BFGS step
   15    -272.1989412951      1.34E-04 Normal BFGS step
   16    -272.1989413882      1.21E-04 Normal BFGS step
   17    -272.1989414608      1.25E-04 Normal BFGS step
   18    -272.1989415190      1.25E-04 Normal BFGS step
   19    -272.1989416121      1.24E-04 Normal BFGS step
   20    -272.1989417994      1.34E-04 Normal BFGS step
   21    -272.1989421517      1.61E-04 Normal BFGS step
   22    -272.1989426694      1.61E-04 Normal BFGS step
   23    -272.1989431232      9.86E-05 Normal BFGS step
   24    -272.1989432988      2.51E-05 Normal BFGS step
   25    -272.1989433238      6.53E-06 Normal BFGS step
   26    -272.1989433265      3.21E-06 Normal BFGS step
   27    -272.1989433270      9.58E-07 Normal BFGS step
   28    -272.1989433270      2.43E-07 Normal BFGS step
   29    -272.1989433271      9.85E-08 Normal BFGS step
   GDM::WARNING energy changes are now smaller than effective accuracy.
   GDM::        calculation will continue, but THRESH should be increased
   GDM::        or SCF_CONVERGENCE decreased.
   GDM::        effective_thresh =   3.121682065621023E-009
   30    -272.1989433270      4.03E-08 Normal BFGS step
   31    -272.1989433270      2.14E-08 Normal BFGS step
   32    -272.1989433271      5.13E-09 Convergence criterion met
 ---------------------------------------
 <S^2> = 0.7531
 SCF time:  CPU 2364.17 s  wall 2376.97 s
 SCF   energy in the final basis set = -272.1989433271
 Total energy in the final basis set = -272.1989433271
 Analysis of SCF Wavefunction
 
 --------------------------------------------------------------
                    Orbital Energies (a.u.)
 --------------------------------------------------------------
 
 Alpha MOs
 -- Occupied --
-19.614 -10.558 -10.505 -10.504 -10.490 -10.483  -1.132  -0.910
 -0.841  -0.778  -0.719  -0.655  -0.569  -0.547  -0.528  -0.523
 -0.478  -0.470  -0.460  -0.456  -0.433  -0.418  -0.405  -0.391
 -0.363
 -- Virtual --
 -0.026  -0.013  -0.012  -0.004   0.014   0.015   0.020   0.025
  0.029   0.047   0.051   0.063   0.068   0.072   0.082   0.090
  0.102   0.114   0.120   0.123   0.125   0.130   0.132   0.138
  0.142   0.148   0.159   0.161   0.168   0.179   0.186   0.190
  0.195   0.218   0.221   0.230   0.240   0.248   0.260   0.274
  0.281   0.295   0.299   0.300   0.305   0.318   0.327   0.338
  0.345   0.369   0.387   0.420   0.442   0.454   0.463   0.480
  0.493   0.509   0.531   0.543   0.558   0.560   0.564   0.574
  0.576   0.579   0.587   0.597   0.603   0.623   0.630   0.632
  0.652   0.667   0.682   0.692   0.699   0.705   0.711   0.724
  0.769   0.786   0.795   0.839   0.866   0.872   0.890   0.900
  0.926   0.947   0.963   0.995   1.005   1.026   1.054   1.067
  1.079   1.095   1.104   1.116   1.125   1.135   1.156   1.159
  1.171   1.190   1.197   1.209   1.233   1.247   1.258   1.275
  1.296   1.300   1.307   1.313   1.328   1.341   1.354   1.367
  1.379   1.390   1.410   1.420   1.439   1.463   1.477   1.487
  1.505   1.517   1.543   1.556   1.569   1.577   1.588   1.607
  1.609   1.626   1.660   1.664   1.698   1.722   1.759   1.802
  1.807   1.839   2.092   2.127   2.354   2.408   2.412   2.459
  2.511   2.540   2.575   2.595   2.627   2.676   2.684   2.720
  2.731   2.743   2.777   2.826   2.856   2.877   2.905   2.914
  2.931   2.942   2.955   2.975   3.001   3.009   3.010   3.043
  3.074   3.130   3.147   3.170   3.188   3.203   3.214   3.257
  3.274   3.290   3.306   3.324   3.344   3.374   3.386   3.396
  3.411   3.429   3.457   3.488   3.502   3.538   3.548   3.563
  3.584   3.601   3.625   3.649   3.659   3.698   3.717   3.740
  3.744   3.761   3.768   3.798   3.823   3.868   3.881   3.916
  3.938   3.943   3.958   3.973   3.979   4.007   4.013   4.036
  4.070   4.089   4.098   4.143   4.164   4.167   4.171   4.199
  4.203   4.224   4.235   4.248   4.319   4.343   4.357   4.365
  4.387   4.411   4.420   4.452   4.476   4.480   4.519   4.539
  4.573   4.577   4.650   4.655   4.682   4.695   4.727   4.844
  4.974   4.985   5.041   5.141   5.188   5.223   5.262   5.312
  5.376   5.378   5.408   5.487   5.548   5.564   5.596   5.625
  5.647   5.663   5.671   5.776   5.802   6.494   6.793   6.802
  7.198   7.254   7.543  24.066  24.124  24.195  24.235  24.277
 49.740
 
 Beta MOs
 -- Occupied --
-19.589 -10.559 -10.504 -10.503 -10.490 -10.483  -1.076  -0.903
 -0.832  -0.778  -0.713  -0.649  -0.545  -0.545  -0.519  -0.501
 -0.470  -0.465  -0.450  -0.448  -0.419  -0.403  -0.398  -0.345
 -- Virtual --
 -0.090  -0.025  -0.012  -0.012  -0.004   0.013   0.015   0.019
  0.026   0.029   0.047   0.051   0.063   0.068   0.072   0.082
  0.091   0.102   0.116   0.120   0.123   0.124   0.130   0.132
  0.139   0.142   0.147   0.160   0.160   0.168   0.180   0.186
  0.191   0.196   0.219   0.221   0.232   0.240   0.248   0.262
  0.275   0.281   0.297   0.299   0.301   0.304   0.317   0.328
  0.344   0.345   0.373   0.387   0.420   0.443   0.454   0.465
  0.481   0.493   0.509   0.532   0.543   0.558   0.560   0.564
  0.573   0.576   0.578   0.587   0.597   0.603   0.624   0.628
  0.631   0.653   0.667   0.682   0.692   0.699   0.706   0.711
  0.724   0.772   0.787   0.795   0.840   0.866   0.873   0.890
  0.900   0.926   0.950   0.964   0.996   1.005   1.026   1.055
  1.067   1.085   1.096   1.108   1.118   1.128   1.135   1.159
  1.171   1.186   1.192   1.200   1.214   1.233   1.249   1.258
  1.275   1.296   1.300   1.308   1.315   1.330   1.342   1.357
  1.368   1.382   1.393   1.412   1.421   1.441   1.465   1.478
  1.489   1.506   1.519   1.545   1.558   1.572   1.580   1.590
  1.608   1.612   1.634   1.661   1.669   1.699   1.726   1.768
  1.817   1.841   1.862   2.102   2.140   2.366   2.409   2.413
  2.459   2.509   2.538   2.575   2.593   2.625   2.670   2.683
  2.713   2.728   2.740   2.771   2.822   2.851   2.875   2.899
  2.914   2.929   2.940   2.953   2.969   2.998   3.003   3.007
  3.042   3.073   3.129   3.147   3.167   3.186   3.201   3.212
  3.255   3.270   3.289   3.304   3.322   3.343   3.370   3.384
  3.393   3.408   3.426   3.456   3.481   3.498   3.535   3.546
  3.562   3.581   3.594   3.616   3.641   3.657   3.689   3.710
  3.735   3.741   3.757   3.762   3.794   3.819   3.864   3.876
  3.912   3.935   3.940   3.956   3.968   3.977   4.005   4.011
  4.035   4.068   4.083   4.096   4.142   4.161   4.166   4.170
  4.196   4.201   4.224   4.235   4.244   4.313   4.332   4.357
  4.361   4.384   4.410   4.415   4.450   4.471   4.476   4.518
  4.538   4.572   4.577   4.641   4.652   4.678   4.691   4.720
  4.845   5.006   5.091   5.125   5.173   5.236   5.277   5.312
  5.338   5.366   5.398   5.422   5.485   5.559   5.570   5.599
  5.625   5.644   5.658   5.670   5.766   5.820   6.446   6.887
  6.963   7.222   7.321   7.539  24.065  24.123  24.195  24.232
 24.274  49.741
 --------------------------------------------------------------
 
          Ground-State Mulliken Net Atomic Charges

     Atom                 Charge (a.u.)    Spin (a.u.)
  --------------------------------------------------------
      1 C                    -0.700625      -0.004929
      2 C                    -0.076861       0.010740
      3 C                    -0.645543       0.004987
      4 C                    -0.250417      -0.041377
      5 C                    -0.712377       0.031121
      6 O                    -0.103284       0.930075
      7 H                     0.205477       0.000598
      8 H                     0.223151      -0.000227
      9 H                     0.190686       0.000054
     10 H                     0.287916       0.002675
     11 H                     0.208141       0.000439
     12 H                     0.196310      -0.000347
     13 H                     0.213303       0.001606
     14 H                     0.316005       0.053049
     15 H                     0.224275      -0.002108
     16 H                     0.205189       0.012919
     17 H                     0.218656       0.000726
  --------------------------------------------------------
  Sum of atomic charges =     0.000000
  Sum of spin   charges =     1.000000

 -----------------------------------------------------------------
                    Cartesian Multipole Moments
 -----------------------------------------------------------------
    Charge (ESU x 10^10)
                 0.0000
    Dipole Moment (Debye)
         X      -0.6464      Y      -2.0336      Z       0.3249
       Tot       2.1585
    Quadrupole Moments (Debye-Ang)
        XX     -40.2717     XY      -3.4048     YY     -43.0375
        XZ       0.4587     YZ       0.5041     ZZ     -39.0898
    Octopole Moments (Debye-Ang^2)
       XXX       5.1271    XXY      -3.7817    XYY      -2.0195
       YYY      -0.2561    XXZ      -1.7137    XYZ       0.1340
       YYZ       0.2185    XZZ       2.1659    YZZ       1.4420
       ZZZ       0.5468
    Hexadecapole Moments (Debye-Ang^3)
      XXXX    -503.4031   XXXY       0.6066   XXYY    -152.0714
      XYYY      -4.9539   YYYY    -341.1344   XXXZ       5.8651
      XXYZ      -0.2876   XYYZ       0.8838   YYYZ       0.2459
      XXZZ     -99.1214   XYZZ       1.3247   YYZZ     -72.8663
      XZZZ      -1.9275   YZZZ       0.7861   ZZZZ     -86.3954
 -----------------------------------------------------------------
 Calculating analytic gradient of the SCF energy
 Gradient of Coulomb and Exchange Energy
            1           2           3           4           5           6
    1   3.6566603   3.6992246   3.2561182  -2.8878034  -3.6256609  -6.4730427
    2   2.2024614   1.0152548  -1.2291376   2.6415636   2.3468137 -11.4744184
    3   0.3703387   0.5189505  -0.3283847  -1.1890911   0.1021299   1.7344553
            7           8           9          10          11          12
    1   3.8375784   0.4517505  -1.5422983  -0.0888499   1.3122272   3.7236937
    2   0.9535885   1.2736470   3.4799158  -0.1461114  -0.9058134  -0.1302182
    3   1.1198076  -3.7268901   1.2330551   5.0563726  -3.6471024   1.5283518
           13          14          15          16          17
    1  -0.5451266   0.2317145  -1.3160603   0.2680817  -3.9582068
    2  -3.9624814  -0.1572481   0.5259830   3.9316502  -0.3654495
    3   1.0218228  -5.1960333   3.7689342  -0.8795397  -1.4871772
 Gradient of SCF Energy
            1           2           3           4           5           6
    1  -0.0038829   0.0061706  -0.0027797   0.0078712  -0.0134558   0.0037032
    2   0.0023988  -0.0010505  -0.0024638  -0.0235584  -0.0019551   0.0239232
    3   0.0023999  -0.0024001   0.0013301   0.0156591   0.0030101  -0.0065982
            7           8           9          10          11          12
    1   0.0011637   0.0003072  -0.0010010  -0.0050128   0.0003901   0.0011362
    2  -0.0011347  -0.0001393   0.0025829   0.0005176   0.0005552   0.0014303
    3   0.0000275  -0.0030360  -0.0004311   0.0019171  -0.0031109  -0.0000020
           13          14          15          16          17
    1  -0.0021254   0.0003176   0.0030806   0.0039237   0.0001933
    2  -0.0012054   0.0003168   0.0001731  -0.0002624  -0.0001285
    3  -0.0004110  -0.0071303   0.0016837  -0.0013304  -0.0015775
 Max gradient component =       2.392E-02
 RMS gradient           =       6.143E-03
 Gradient time:  CPU 80.89 s  wall 80.90 s
 Geometry Optimization Parameters
   NAtoms,    NIC,     NZ,  NCons,   NDum,   NFix, NCnnct, MaxDiis
       17     116       0       0       0       0       0       0


** GEOMETRY OPTIMIZATION IN DELOCALIZED INTERNAL COORDINATES **
   Searching for a Minimum

   Optimization Cycle:   1

                       Coordinates (Angstroms)
     ATOM                X               Y               Z
      1  C        -1.2722701804   -1.4087106684    0.0782005491
      2  C        -0.6539346788   -0.0690061560   -0.3278895179
      3  C        -1.6176992900    1.0672831297    0.0361859491
      4  C         0.7313552956    0.1526584018    0.3170111805
      5  C         1.7671228199   -0.8940748419   -0.0789636787
      6  O         1.2436553912    1.4311049919   -0.0631040495
      7  H        -2.2978729092   -1.4965858123   -0.2963397230
      8  H        -1.3016730460   -1.5163919692    1.1679547370
      9  H        -0.7059293335   -2.2495329686   -0.3332793176
     10  H        -0.5417321671   -0.0541407600   -1.4200022032
     11  H        -1.7917467823    1.1074884059    1.1167552754
     12  H        -2.5854584806    0.9259407987   -0.4573792830
     13  H        -1.2290839188    2.0395605624   -0.2830694073
     14  H         0.6343386036    0.1606101055    1.4087531411
     15  H         1.9336101070   -0.8903419543   -1.1618183824
     16  H         1.4765284517   -1.9012388523    0.2303367497
     17  H         2.7323325477   -0.6631066820    0.3856539157
   Point Group: c1    Number of degrees of freedom:    45


   Energy is   -272.198943327


 Attempting to Generate Delocalized Internal Coordinates
 GETINT wrote B to file, NVib is           45
 calling HSSCONV
 HCONV 3*NATOMS:           51
 wrote HINT to file
  writing hessian 

 45 Hessian modes will be used to form the next step
  Hessian Eigenvalues:
     0.003353    0.004707    0.005160    0.005888    0.036383    0.042228
     0.046384    0.051003    0.051291    0.054953    0.055249    0.055614
     0.056282    0.056308    0.058074    0.096296    0.160000    0.160000
     0.160000    0.160000    0.160000    0.160000    0.160000    0.160000
     0.160000    0.165249    0.169794    0.170129    0.232369    0.281640
     0.290751    0.293886    0.299013    0.339085    0.341202    0.341474
     0.341751    0.341836    0.341897    0.341979    0.342146    0.342802
     0.343439    0.344765    0.411675

 Minimum Search - Taking Simple RFO Step
 Searching for Lamda that Minimizes Along All modes
 Value Taken    Lamda =  -0.00395997
 Step Taken.  Stepsize is  0.186734

                             Maximum     Tolerance    Cnvgd?
         Gradient           0.010759      0.000300      NO
         Displacement       0.058280      0.001200      NO
         Energy change     *********      0.000001      NO


 New Cartesian Coordinates Obtained by Inverse Iteration

 Displacement from previous Coordinates is:  0.235312
 ----------------------------------------------------------------
             Standard Nuclear Orientation (Angstroms)
    I     Atom           X                Y                Z
 ----------------------------------------------------------------
    1      C      -1.2567317177    -1.4224154139     0.0750662785
    2      C      -0.6636409165    -0.0696761138    -0.3398079138
    3      C      -1.6099550811     1.0757533510     0.0384181758
    4      C       0.7065670572     0.1591143624     0.3065620144
    5      C       1.7590655932    -0.8804533742    -0.0858332253
    6      O       1.2448930394     1.3938805029    -0.0660129163
    7      H      -2.2801864772    -1.5238773962    -0.3063432738
    8      H      -1.2999501596    -1.5082755644     1.1709377612
    9      H      -0.6739801404    -2.2693816959    -0.3095207822
   10      H      -0.5127659031    -0.0573111142    -1.4310398501
   11      H      -1.7871231736     1.0916045397     1.1239309371
   12      H      -2.5799261620     0.9536452507    -0.4599642350
   13      H      -1.1935114638     2.0477552214    -0.2544089029
   14      H       0.6082910498     0.1679771686     1.4091509955
   15      H       1.8964509761    -0.8918449010    -1.1745589376
   16      H       1.4393040954    -1.8746682949     0.2423032665
   17      H       2.7247418139    -0.6503107974     0.3801265433
 ----------------------------------------------------------------
 Molecular Point Group                 C1    NOp =  1
 Largest Abelian Subgroup              C1    NOp =  1
 Nuclear Repulsion Energy =   253.0262043179 hartrees
 There are       25 alpha and       24 beta electrons
 Applying Cartesian multipole field
    Component          Value
    ---------          -----
     (2,0,0)        1.00000E-11
     (0,2,0)        2.00000E-11
     (0,0,2)       -3.00000E-11
 Nucleus-field energy     =     0.0000000066 hartrees
 Requested basis set is non-standard
 There are 138 shells and 314 basis functions
 A cutoff of  1.0D-12 yielded   9202 shell pairs
 There are     47768 function pairs (     57503 Cartesian)
 Smallest overlap matrix eigenvalue = 1.53E-05
 Guess MOs from SCF MO coefficient file
Reading MOs from coefficient file
Reading MOs from coefficient file
 An unrestricted hybrid HF-DFT SCF calculation will be
 performed using Pulay DIIS + Geometric Direct Minimization
 Exchange:     0.5679 Hartree-Fock + 1.0000 M08SO
 SCF converges when RMS gradient is below 1.0E-08
Geometry optimization detected.  Setting ReadMinima to 0
Setting SaveMinima to 0
 Inaccurate integrated density:
   Number of electrons =    49
   Numerical integral  =    48.984623792481
   Relative error      =    -0.0313800153 %
 ---------------------------------------
  Cycle       Energy        RMS Gradient
 ---------------------------------------
    1    -272.2091395656      6.82E-04 Done DIIS. Switching to GDM
    2    -272.2011800632      4.58E-03 Normal BFGS step
    3    -272.2013370946      2.03E-03 Normal BFGS step
    4    -272.2013926991      1.57E-03 Normal BFGS step
    5    -272.2014058526      7.34E-04 Normal BFGS step
    6    -272.2014109876      7.70E-04 Normal BFGS step
    7    -272.2014131879      7.76E-04 Normal BFGS step
    8    -272.2014149528      7.63E-04 Normal BFGS step
    9    -272.2014188343      6.91E-04 Normal BFGS step
   10    -272.2014248001      7.15E-04 Normal BFGS step
   11    -272.2014328459      8.74E-04 Normal BFGS step
   12    -272.2014398059      5.98E-04 Normal BFGS step
   13    -272.2014426268      2.23E-04 Normal BFGS step
   14    -272.2014431153      2.85E-05 Normal BFGS step
   15    -272.2014431541      1.33E-05 Normal BFGS step
   16    -272.2014431584      4.30E-06 Normal BFGS step
   17    -272.2014431593      1.47E-06 Normal BFGS step
   18    -272.2014431594      6.90E-07 Normal BFGS step
   19    -272.2014431595      1.24E-07 Normal BFGS step
   20    -272.2014431595      9.65E-08 Normal BFGS step
   GDM::WARNING energy changes are now smaller than effective accuracy.
   GDM::        calculation will continue, but THRESH should be increased
   GDM::        or SCF_CONVERGENCE decreased.
   GDM::        effective_thresh =   2.302976588944294E-009
   21    -272.2014431595      3.16E-08 Normal BFGS step
   GDM::WARNING energy changes are now smaller than effective accuracy.
   GDM::        calculation will continue, but THRESH should be increased
   GDM::        or SCF_CONVERGENCE decreased.
   GDM::        effective_thresh =   2.302976588944294E-009
   22    -272.2014431594      8.02E-09 Convergence criterion met
 ---------------------------------------
 <S^2> = 0.7533
 SCF time:  CPU 1644.98 s  wall 1649.11 s
 SCF   energy in the final basis set = -272.2014431594
 Total energy in the final basis set = -272.2014431594
 Analysis of SCF Wavefunction
 
 --------------------------------------------------------------
                    Orbital Energies (a.u.)
 --------------------------------------------------------------
 
 Alpha MOs
 -- Occupied --
-19.610 -10.555 -10.507 -10.505 -10.492 -10.485  -1.141  -0.910
 -0.839  -0.779  -0.719  -0.654  -0.572  -0.549  -0.530  -0.523
 -0.480  -0.469  -0.460  -0.456  -0.434  -0.417  -0.406  -0.387
 -0.360
 -- Virtual --
 -0.026  -0.012  -0.012  -0.004   0.014   0.015   0.020   0.025
  0.029   0.047   0.052   0.063   0.067   0.072   0.082   0.089
  0.103   0.115   0.120   0.123   0.124   0.129   0.133   0.138
  0.142   0.147   0.159   0.161   0.168   0.180   0.185   0.190
  0.198   0.218   0.220   0.229   0.240   0.249   0.263   0.274
  0.281   0.295   0.298   0.301   0.307   0.319   0.327   0.340
  0.348   0.368   0.390   0.419   0.443   0.457   0.463   0.481
  0.494   0.511   0.534   0.544   0.555   0.560   0.566   0.572
  0.578   0.579   0.587   0.598   0.605   0.621   0.630   0.632
  0.651   0.662   0.681   0.690   0.702   0.703   0.711   0.723
  0.769   0.785   0.795   0.838   0.868   0.875   0.887   0.901
  0.925   0.944   0.968   0.994   1.007   1.026   1.054   1.063
  1.080   1.096   1.102   1.115   1.121   1.135   1.154   1.159
  1.171   1.185   1.197   1.207   1.231   1.245   1.259   1.276
  1.297   1.303   1.309   1.311   1.329   1.342   1.354   1.369
  1.383   1.390   1.406   1.420   1.436   1.461   1.480   1.486
  1.504   1.511   1.541   1.555   1.567   1.581   1.589   1.611
  1.612   1.624   1.665   1.668   1.701   1.725   1.760   1.813
  1.817   1.849   2.098   2.142   2.384   2.406   2.419   2.463
  2.522   2.546   2.578   2.601   2.639   2.679   2.691   2.724
  2.735   2.745   2.787   2.820   2.858   2.879   2.905   2.918
  2.927   2.939   2.960   2.978   3.006   3.010   3.016   3.043
  3.079   3.128   3.148   3.177   3.179   3.208   3.221   3.256
  3.279   3.290   3.308   3.322   3.343   3.366   3.384   3.394
  3.411   3.436   3.459   3.493   3.506   3.539   3.549   3.565
  3.591   3.596   3.626   3.650   3.666   3.698   3.710   3.738
  3.747   3.763   3.772   3.799   3.823   3.871   3.877   3.913
  3.932   3.949   3.961   3.978   3.980   4.005   4.009   4.036
  4.065   4.091   4.093   4.135   4.153   4.164   4.172   4.194
  4.199   4.222   4.233   4.248   4.308   4.338   4.369   4.372
  4.395   4.409   4.425   4.444   4.462   4.490   4.508   4.530
  4.569   4.572   4.648   4.651   4.679   4.705   4.719   4.847
  4.977   4.992   5.051   5.158   5.200   5.242   5.288   5.331
  5.383   5.394   5.407   5.485   5.543   5.562   5.585   5.609
  5.639   5.651   5.664   5.822   5.861   6.592   6.805   6.817
  7.233   7.274   7.559  24.064  24.122  24.182  24.234  24.305
 49.763
 
 Beta MOs
 -- Occupied --
-19.585 -10.556 -10.505 -10.505 -10.492 -10.485  -1.087  -0.904
 -0.830  -0.778  -0.713  -0.648  -0.547  -0.545  -0.519  -0.502
 -0.469  -0.465  -0.451  -0.449  -0.419  -0.405  -0.401  -0.342
 -- Virtual --
 -0.090  -0.025  -0.012  -0.012  -0.004   0.013   0.015   0.019
  0.025   0.029   0.047   0.051   0.063   0.068   0.071   0.081
  0.091   0.103   0.116   0.120   0.123   0.124   0.129   0.132
  0.138   0.142   0.147   0.159   0.161   0.169   0.180   0.185
  0.191   0.199   0.218   0.220   0.230   0.240   0.250   0.265
  0.275   0.281   0.298   0.298   0.302   0.307   0.318   0.329
  0.345   0.348   0.372   0.390   0.419   0.444   0.457   0.464
  0.481   0.494   0.511   0.535   0.544   0.556   0.560   0.566
  0.572   0.578   0.578   0.587   0.597   0.606   0.622   0.628
  0.632   0.652   0.662   0.681   0.690   0.702   0.704   0.711
  0.723   0.772   0.786   0.796   0.839   0.868   0.876   0.887
  0.902   0.925   0.947   0.970   0.994   1.007   1.026   1.055
  1.063   1.086   1.098   1.104   1.117   1.126   1.136   1.159
  1.170   1.182   1.188   1.199   1.212   1.231   1.248   1.259
  1.276   1.298   1.301   1.310   1.314   1.329   1.343   1.358
  1.369   1.383   1.395   1.409   1.421   1.437   1.463   1.479
  1.489   1.505   1.513   1.542   1.557   1.571   1.584   1.591
  1.612   1.613   1.631   1.665   1.673   1.702   1.729   1.767
  1.831   1.844   1.877   2.107   2.153   2.394   2.406   2.423
  2.462   2.520   2.543   2.579   2.599   2.636   2.674   2.689
  2.720   2.731   2.738   2.780   2.818   2.855   2.877   2.901
  2.916   2.926   2.938   2.958   2.974   3.003   3.005   3.011
  3.043   3.078   3.127   3.147   3.174   3.177   3.206   3.218
  3.254   3.275   3.288   3.304   3.321   3.342   3.364   3.382
  3.390   3.407   3.433   3.459   3.483   3.502   3.538   3.546
  3.562   3.584   3.592   3.617   3.645   3.664   3.688   3.703
  3.732   3.744   3.759   3.766   3.796   3.819   3.862   3.874
  3.910   3.929   3.947   3.958   3.973   3.978   4.003   4.008
  4.034   4.063   4.086   4.091   4.134   4.150   4.163   4.172
  4.191   4.195   4.223   4.233   4.245   4.303   4.326   4.364
  4.372   4.394   4.407   4.417   4.442   4.461   4.481   4.506
  4.528   4.568   4.571   4.640   4.649   4.674   4.701   4.712
  4.847   5.012   5.092   5.133   5.180   5.246   5.292   5.328
  5.358   5.375   5.405   5.424   5.489   5.547   5.575   5.590
  5.609   5.639   5.650   5.662   5.812   5.873   6.542   6.895
  6.979   7.241   7.352   7.549  24.063  24.121  24.181  24.232
 24.300  49.763
 --------------------------------------------------------------
 
          Ground-State Mulliken Net Atomic Charges

     Atom                 Charge (a.u.)    Spin (a.u.)
  --------------------------------------------------------
      1 C                    -0.693809      -0.005028
      2 C                    -0.071323       0.018628
      3 C                    -0.633016       0.005752
      4 C                    -0.269315      -0.049644
      5 C                    -0.692209       0.048423
      6 O                    -0.108345       0.912516
      7 H                     0.206713       0.001116
      8 H                     0.224628      -0.000128
      9 H                     0.189437      -0.000244
     10 H                     0.278510       0.002530
     11 H                     0.205720       0.000179
     12 H                     0.197207      -0.000768
     13 H                     0.210173       0.001414
     14 H                     0.307642       0.050488
     15 H                     0.224628      -0.002845
     16 H                     0.205510       0.017267
     17 H                     0.217848       0.000342
  --------------------------------------------------------
  Sum of atomic charges =     0.000000
  Sum of spin   charges =     1.000000

 -----------------------------------------------------------------
                    Cartesian Multipole Moments
 -----------------------------------------------------------------
    Charge (ESU x 10^10)
                 0.0000
    Dipole Moment (Debye)
         X      -0.7054      Y      -2.0143      Z       0.3099
       Tot       2.1566
    Quadrupole Moments (Debye-Ang)
        XX     -40.2724     XY      -3.4010     YY     -42.8771
        XZ       0.4451     YZ       0.5376     ZZ     -39.2662
    Octopole Moments (Debye-Ang^2)
       XXX       5.6388    XXY      -3.5070    XYY      -2.0520
       YYY       0.5520    XXZ      -1.2523    XYZ       0.2030
       YYZ       0.3477    XZZ       2.1400    YZZ       1.4282
       ZZZ       0.7910
    Hexadecapole Moments (Debye-Ang^3)
      XXXX    -495.6875   XXXY       0.9132   XXYY    -150.9928
      XYYY      -4.1024   YYYY    -338.0859   XXXZ       7.0649
      XXYZ      -0.2152   XYYZ       1.1004   YYYZ      -0.0570
      XXZZ     -98.3704   XYZZ       1.1134   YYZZ     -72.9918
      XZZZ      -1.5834   YZZZ       0.7222   ZZZZ     -87.4813
 -----------------------------------------------------------------
 Calculating analytic gradient of the SCF energy
 Gradient of Coulomb and Exchange Energy
            1           2           3           4           5           6
    1   3.4260879   4.3386155   3.3265311  -2.4867600  -4.0317009  -6.7871391
    2   2.3930366   1.0185186  -1.4340014   2.9348537   2.0787077 -11.4791249
    3   0.4074197   0.9474830  -0.4059111  -1.3463579   0.2076054   1.7523471
            7           8           9          10          11          12
    1   3.8314051   0.5078204  -1.6151212  -0.3728287   1.3291627   3.7349970
    2   0.9617425   1.1901099   3.5443698  -0.0992046  -0.8300245  -0.1418041
    3   1.1387508  -3.7341366   1.0938011   5.0392571  -3.6720568   1.5328432
           13          14          15          16          17
    1  -0.6662743   0.2100401  -1.1573409   0.4272730  -4.0147679
    2  -3.9927766  -0.2540287   0.5983745   3.8651815  -0.3539300
    3   0.8849464  -5.1816614   3.8363406  -0.9520189  -1.5486517
 Gradient of SCF Energy
            1           2           3           4           5           6
    1  -0.0005182   0.0024606   0.0000879   0.0006399  -0.0073907   0.0016056
    2  -0.0002041   0.0021101   0.0001984  -0.0167817   0.0027104   0.0093797
    3   0.0009304   0.0000491   0.0010007   0.0011014   0.0019329  -0.0010707
            7           8           9          10          11          12
    1   0.0003568   0.0000270   0.0002082  -0.0005594  -0.0001869   0.0002097
    2   0.0000005  -0.0003652  -0.0004717  -0.0000227   0.0004962  -0.0001960
    3  -0.0001772  -0.0003040  -0.0001216   0.0001423  -0.0002012  -0.0004025
           13          14          15          16          17
    1  -0.0005721   0.0003905   0.0012442   0.0007150   0.0012818
    2   0.0004443   0.0029153  -0.0001563   0.0000606  -0.0001179
    3  -0.0001622  -0.0019373  -0.0001881  -0.0005428  -0.0000494
 Max gradient component =       1.678E-02
 RMS gradient           =       3.042E-03
 Gradient time:  CPU 78.42 s  wall 78.43 s
 Geometry Optimization Parameters
   NAtoms,    NIC,     NZ,  NCons,   NDum,   NFix, NCnnct, MaxDiis
       17     116       0       0       0       0       0       0

 Cartesian Hessian Update
 Hessian Updated using BFGS Update


** GEOMETRY OPTIMIZATION IN DELOCALIZED INTERNAL COORDINATES **
   Searching for a Minimum

   Optimization Cycle:   2

                       Coordinates (Angstroms)
     ATOM                X               Y               Z
      1  C        -1.2567317177   -1.4224154139    0.0750662785
      2  C        -0.6636409165   -0.0696761138   -0.3398079138
      3  C        -1.6099550811    1.0757533510    0.0384181758
      4  C         0.7065670572    0.1591143624    0.3065620144
      5  C         1.7590655932   -0.8804533742   -0.0858332253
      6  O         1.2448930394    1.3938805029   -0.0660129163
      7  H        -2.2801864772   -1.5238773962   -0.3063432738
      8  H        -1.2999501596   -1.5082755644    1.1709377612
      9  H        -0.6739801404   -2.2693816959   -0.3095207822
     10  H        -0.5127659031   -0.0573111142   -1.4310398501
     11  H        -1.7871231736    1.0916045397    1.1239309371
     12  H        -2.5799261620    0.9536452507   -0.4599642350
     13  H        -1.1935114638    2.0477552214   -0.2544089029
     14  H         0.6082910498    0.1679771686    1.4091509955
     15  H         1.8964509761   -0.8918449010   -1.1745589376
     16  H         1.4393040954   -1.8746682949    0.2423032665
     17  H         2.7247418139   -0.6503107974    0.3801265433
   Point Group: c1    Number of degrees of freedom:    45


   Energy is   -272.201443159

 GETINT wrote B to file, NVib is           45
 Hessian Updated using BFGS Update

 38 Hessian modes will be used to form the next step
  Hessian Eigenvalues:
     0.003359    0.004718    0.005189    0.005848    0.036123    0.041508
     0.046575    0.047088    0.053773    0.055059    0.055481    0.055725
     0.056283    0.056754    0.058866    0.093394    0.145791    0.162473
     0.164213    0.167121    0.173061    0.231406    0.279964    0.291035
     0.291329    0.299838    0.334453    0.339250    0.341606    0.341779
     0.341846    0.341971    0.342037    0.342562    0.343074    0.344677
     0.352781    0.363939

 Minimum Search - Taking Simple RFO Step
 Searching for Lamda that Minimizes Along All modes
 Value Taken    Lamda =  -0.00104593
 Step Taken.  Stepsize is  0.146487

                             Maximum     Tolerance    Cnvgd?
         Gradient           0.004564      0.000300      NO
         Displacement       0.068893      0.001200      NO
         Energy change     -0.002500      0.000001      NO


 New Cartesian Coordinates Obtained by Inverse Iteration

 Displacement from previous Coordinates is:  0.134033
 ----------------------------------------------------------------
             Standard Nuclear Orientation (Angstroms)
    I     Atom           X                Y                Z
 ----------------------------------------------------------------
    1      C      -1.2613205733    -1.4223336479     0.0760346539
    2      C      -0.6681649935    -0.0733933850    -0.3449466230
    3      C      -1.6092153798     1.0735081414     0.0311361443
    4      C       0.6987992479     0.1667518290     0.3109365779
    5      C       1.7685269741    -0.8699657396    -0.0909400631
    6      O       1.2496369238     1.3731125280    -0.0572670544
    7      H      -2.2874126854    -1.5236257003    -0.3006551526
    8      H      -1.3037203086    -1.4947678557     1.1743045752
    9      H      -0.6802031089    -2.2735700654    -0.3002446064
   10      H      -0.5017315872    -0.0636426802    -1.4350544020
   11      H      -1.7866027345     1.0770332201     1.1178974307
   12      H      -2.5807743545     0.9662043704    -0.4681907981
   13      H      -1.1742653193     2.0412509347    -0.2485652998
   14      H       0.5987947777     0.1393944879     1.4190106651
   15      H       1.8786491955    -0.8849072888    -1.1823290197
   16      H       1.4475771139    -1.8605116551     0.2507722005
   17      H       2.7329692422    -0.6290217628     0.3671067070
 ----------------------------------------------------------------
 Molecular Point Group                 C1    NOp =  1
 Largest Abelian Subgroup              C1    NOp =  1
 Nuclear Repulsion Energy =   253.4045527391 hartrees
 There are       25 alpha and       24 beta electrons
 Applying Cartesian multipole field
    Component          Value
    ---------          -----
     (2,0,0)        1.00000E-11
     (0,2,0)        2.00000E-11
     (0,0,2)       -3.00000E-11
 Nucleus-field energy     =     0.0000000065 hartrees
 Requested basis set is non-standard
 There are 138 shells and 314 basis functions
 A cutoff of  1.0D-12 yielded   9200 shell pairs
 There are     47758 function pairs (     57491 Cartesian)
 Smallest overlap matrix eigenvalue = 1.53E-05
 Guess MOs from SCF MO coefficient file
Reading MOs from coefficient file
Reading MOs from coefficient file
 An unrestricted hybrid HF-DFT SCF calculation will be
 performed using Pulay DIIS + Geometric Direct Minimization
 Exchange:     0.5679 Hartree-Fock + 1.0000 M08SO
 SCF converges when RMS gradient is below 1.0E-08
Geometry optimization detected.  Setting ReadMinima to 0
Setting SaveMinima to 0
 ---------------------------------------
  Cycle       Energy        RMS Gradient
 ---------------------------------------
    1    -272.2070964881      4.96E-04 Done DIIS. Switching to GDM
    2    -272.2018903542      4.01E-03 Normal BFGS step
    3    -272.2019746757      1.47E-03 Normal BFGS step
    4    -272.2020146578      1.13E-03 Normal BFGS step
    5    -272.2020261602      9.99E-04 Normal BFGS step
    6    -272.2020303117      9.81E-04 Normal BFGS step
    7    -272.2020340476      9.47E-04 Normal BFGS step
    8    -272.2020379586      8.80E-04 Normal BFGS step
    9    -272.2020459664      8.97E-04 Normal BFGS step
   10    -272.2020545016      9.07E-04 Normal BFGS step
   11    -272.2020605753      5.68E-04 Normal BFGS step
   12    -272.2020626129      2.20E-04 Normal BFGS step
   13    -272.2020630197      7.08E-05 Normal BFGS step
   14    -272.2020630844      1.30E-05 Normal BFGS step
   15    -272.2020630894      7.46E-06 Normal BFGS step
   16    -272.2020630903      2.71E-06 Normal BFGS step
   17    -272.2020630904      6.40E-07 Normal BFGS step
   18    -272.2020630904      1.38E-07 Normal BFGS step
   19    -272.2020630904      5.56E-08 Normal BFGS step
   20    -272.2020630905      3.43E-08 Normal BFGS step
   21    -272.2020630905      1.38E-08 Normal BFGS step
   22    -272.2020630906      2.84E-09 Convergence criterion met
 ---------------------------------------
 <S^2> = 0.7536
 SCF time:  CPU 1648.60 s  wall 1651.79 s
 SCF   energy in the final basis set = -272.2020630906
 Total energy in the final basis set = -272.2020630906
 Analysis of SCF Wavefunction
 
 --------------------------------------------------------------
                    Orbital Energies (a.u.)
 --------------------------------------------------------------
 
 Alpha MOs
 -- Occupied --
-19.608 -10.555 -10.509 -10.506 -10.493 -10.486  -1.147  -0.910
 -0.838  -0.780  -0.718  -0.653  -0.574  -0.550  -0.530  -0.523
 -0.482  -0.469  -0.461  -0.456  -0.437  -0.416  -0.407  -0.383
 -0.358
 -- Virtual --
 -0.026  -0.012  -0.012  -0.004   0.014   0.015   0.020   0.025
  0.029   0.047   0.052   0.063   0.067   0.072   0.081   0.089
  0.103   0.115   0.120   0.123   0.124   0.129   0.132   0.138
  0.142   0.147   0.159   0.161   0.168   0.179   0.185   0.191
  0.199   0.218   0.220   0.228   0.240   0.251   0.266   0.272
  0.280   0.295   0.299   0.302   0.309   0.318   0.327   0.340
  0.348   0.368   0.391   0.419   0.443   0.458   0.463   0.481
  0.494   0.512   0.534   0.543   0.554   0.560   0.566   0.572
  0.578   0.579   0.587   0.598   0.607   0.621   0.630   0.631
  0.651   0.661   0.680   0.690   0.702   0.704   0.711   0.722
  0.769   0.784   0.793   0.836   0.867   0.877   0.887   0.902
  0.925   0.945   0.970   0.994   1.008   1.025   1.051   1.062
  1.078   1.095   1.100   1.113   1.121   1.136   1.153   1.159
  1.171   1.182   1.195   1.204   1.229   1.244   1.259   1.274
  1.296   1.302   1.307   1.313   1.330   1.343   1.353   1.370
  1.383   1.391   1.406   1.423   1.434   1.458   1.482   1.484
  1.501   1.511   1.541   1.554   1.565   1.582   1.588   1.609
  1.610   1.623   1.664   1.670   1.701   1.726   1.756   1.814
  1.827   1.858   2.100   2.156   2.401   2.406   2.422   2.468
  2.526   2.546   2.577   2.600   2.644   2.679   2.691   2.724
  2.737   2.750   2.788   2.819   2.857   2.878   2.901   2.919
  2.925   2.937   2.960   2.984   3.004   3.010   3.018   3.042
  3.077   3.126   3.147   3.174   3.180   3.207   3.225   3.251
  3.281   3.289   3.305   3.321   3.342   3.362   3.382   3.399
  3.411   3.436   3.460   3.489   3.508   3.538   3.551   3.567
  3.589   3.597   3.624   3.649   3.669   3.703   3.710   3.736
  3.747   3.763   3.775   3.797   3.819   3.868   3.876   3.912
  3.930   3.949   3.962   3.978   3.984   4.004   4.009   4.037
  4.061   4.085   4.093   4.130   4.147   4.161   4.174   4.190
  4.200   4.223   4.232   4.250   4.294   4.337   4.369   4.375
  4.398   4.411   4.423   4.445   4.457   4.491   4.499   4.526
  4.567   4.573   4.636   4.649   4.679   4.705   4.719   4.848
  4.978   4.996   5.055   5.170   5.203   5.245   5.302   5.344
  5.377   5.401   5.409   5.495   5.543   5.563   5.583   5.607
  5.638   5.647   5.661   5.856   5.905   6.651   6.810   6.825
  7.251   7.284   7.565  24.064  24.119  24.180  24.238  24.313
 49.779
 
 Beta MOs
 -- Occupied --
-19.584 -10.556 -10.507 -10.505 -10.493 -10.486  -1.094  -0.904
 -0.828  -0.779  -0.712  -0.648  -0.548  -0.544  -0.520  -0.503
 -0.470  -0.464  -0.453  -0.450  -0.420  -0.406  -0.401  -0.340
 -- Virtual --
 -0.090  -0.025  -0.012  -0.012  -0.004   0.013   0.015   0.019
  0.025   0.029   0.047   0.051   0.063   0.068   0.072   0.081
  0.090   0.103   0.116   0.120   0.123   0.123   0.129   0.132
  0.138   0.142   0.147   0.159   0.161   0.169   0.180   0.185
  0.191   0.200   0.218   0.221   0.230   0.240   0.252   0.266
  0.274   0.280   0.298   0.299   0.302   0.309   0.318   0.329
  0.346   0.348   0.373   0.392   0.419   0.444   0.459   0.464
  0.481   0.494   0.512   0.535   0.543   0.554   0.560   0.566
  0.572   0.577   0.579   0.587   0.596   0.607   0.621   0.628
  0.630   0.652   0.661   0.679   0.690   0.702   0.704   0.711
  0.723   0.772   0.785   0.794   0.837   0.868   0.877   0.888
  0.903   0.925   0.947   0.972   0.995   1.008   1.025   1.052
  1.062   1.084   1.096   1.103   1.115   1.127   1.136   1.158
  1.169   1.180   1.184   1.198   1.208   1.229   1.248   1.259
  1.275   1.296   1.301   1.307   1.316   1.330   1.344   1.356
  1.370   1.382   1.396   1.408   1.424   1.436   1.459   1.481
  1.488   1.502   1.512   1.542   1.556   1.568   1.586   1.591
  1.610   1.611   1.629   1.664   1.674   1.703   1.730   1.762
  1.837   1.847   1.889   2.113   2.165   2.404   2.409   2.427
  2.467   2.524   2.542   2.578   2.597   2.640   2.675   2.688
  2.720   2.734   2.739   2.782   2.817   2.854   2.876   2.897
  2.917   2.925   2.935   2.958   2.979   2.999   3.007   3.015
  3.042   3.077   3.126   3.147   3.172   3.178   3.206   3.222
  3.250   3.278   3.287   3.301   3.320   3.340   3.359   3.380
  3.394   3.408   3.433   3.459   3.478   3.504   3.536   3.550
  3.563   3.582   3.594   3.616   3.644   3.667   3.690   3.705
  3.730   3.744   3.760   3.770   3.794   3.815   3.857   3.874
  3.908   3.928   3.948   3.960   3.976   3.980   4.002   4.008
  4.035   4.059   4.082   4.090   4.129   4.144   4.161   4.173
  4.186   4.195   4.223   4.232   4.247   4.290   4.325   4.365
  4.375   4.397   4.408   4.414   4.443   4.457   4.481   4.498
  4.525   4.565   4.572   4.629   4.646   4.673   4.702   4.711
  4.848   5.013   5.091   5.136   5.184   5.241   5.294   5.332
  5.362   5.382   5.411   5.435   5.500   5.546   5.576   5.591
  5.608   5.638   5.648   5.662   5.850   5.911   6.601   6.898
  6.987   7.252   7.366   7.553  24.064  24.118  24.180  24.237
 24.308  49.779
 --------------------------------------------------------------
 
          Ground-State Mulliken Net Atomic Charges

     Atom                 Charge (a.u.)    Spin (a.u.)
  --------------------------------------------------------
      1 C                    -0.682354      -0.004475
      2 C                    -0.084174       0.025387
      3 C                    -0.628610       0.006038
      4 C                    -0.270906      -0.055225
      5 C                    -0.672207       0.067559
      6 O                    -0.114392       0.896173
      7 H                     0.206657       0.001648
      8 H                     0.223886      -0.000077
      9 H                     0.188613      -0.000470
     10 H                     0.273265       0.002137
     11 H                     0.205766       0.000021
     12 H                     0.197946      -0.001102
     13 H                     0.208460       0.001205
     14 H                     0.300534       0.044630
     15 H                     0.224169      -0.003502
     16 H                     0.205441       0.020397
     17 H                     0.217904      -0.000344
  --------------------------------------------------------
  Sum of atomic charges =     0.000000
  Sum of spin   charges =     1.000000

 -----------------------------------------------------------------
                    Cartesian Multipole Moments
 -----------------------------------------------------------------
    Charge (ESU x 10^10)
                 0.0000
    Dipole Moment (Debye)
         X      -0.7224      Y      -2.0214      Z       0.2834
       Tot       2.1653
    Quadrupole Moments (Debye-Ang)
        XX     -40.1729     XY      -3.4146     YY     -42.8211
        XZ       0.4660     YZ       0.4872     ZZ     -39.3827
    Octopole Moments (Debye-Ang^2)
       XXX       5.8208    XXY      -3.4497    XYY      -2.0132
       YYY       0.8889    XXZ      -1.0675    XYZ       0.1964
       YYZ       0.2278    XZZ       2.0627    YZZ       1.3508
       ZZZ       0.6666
    Hexadecapole Moments (Debye-Ang^3)
      XXXX    -495.3692   XXXY       0.6870   XXYY    -150.6990
      XYYY      -4.1151   YYYY    -334.3960   XXXZ       7.3863
      XXYZ      -0.2265   XYYZ       1.0710   YYYZ      -0.2932
      XXZZ     -98.9424   XYZZ       0.8310   YYZZ     -72.7184
      XZZZ      -1.8202   YZZZ       0.6652   ZZZZ     -88.2776
 -----------------------------------------------------------------
 Calculating analytic gradient of the SCF energy
 Gradient of Coulomb and Exchange Energy
            1           2           3           4           5           6
    1   3.3778456   4.4243902   3.4252625  -2.1602277  -4.2020785  -7.0204337
    2   2.4690032   1.0360058  -1.4639243   2.8780017   2.0009092 -11.5450128
    3   0.4205349   1.1583732  -0.3469210  -1.5540707   0.1799137   1.8080496
            7           8           9          10          11          12
    1   3.8483763   0.5098733  -1.6126558  -0.4690667   1.3249625   3.7569539
    2   0.9539622   1.1306111   3.5664373  -0.0690444  -0.7766162  -0.1799550
    3   1.1089748  -3.7392471   1.0626526   5.0248273  -3.6758034   1.5258496
           13          14          15          16          17
    1  -0.7549849   0.1824877  -1.0263507   0.4387217  -4.0430758
    2  -3.9845546  -0.0779191   0.6097420   3.8422080  -0.3898539
    3   0.8309208  -5.1325101   3.8725245  -1.0008739  -1.5431949
 Gradient of SCF Energy
            1           2           3           4           5           6
    1  -0.0000834  -0.0001797   0.0004410  -0.0003190  -0.0011426   0.0003024
    2  -0.0004315   0.0019287  -0.0002139  -0.0055869   0.0031023   0.0008272
    3  -0.0003445   0.0014152  -0.0002551  -0.0039757   0.0017247   0.0007443
            7           8           9          10          11          12
    1  -0.0002370  -0.0000020   0.0001197   0.0004410  -0.0000091  -0.0003257
    2   0.0000939   0.0000095  -0.0002954  -0.0000595  -0.0000962  -0.0002788
    3  -0.0000678   0.0004641   0.0000310  -0.0003709   0.0004147  -0.0001346
           13          14          15          16          17
    1   0.0003814   0.0004199  -0.0000899  -0.0001260   0.0004090
    2   0.0000021   0.0015518  -0.0001731  -0.0000996  -0.0002806
    3  -0.0000304   0.0009597  -0.0004707  -0.0002525   0.0001485
 Max gradient component =       5.587E-03
 RMS gradient           =       1.205E-03
 Gradient time:  CPU 81.83 s  wall 81.88 s
 Geometry Optimization Parameters
   NAtoms,    NIC,     NZ,  NCons,   NDum,   NFix, NCnnct, MaxDiis
       17     116       0       0       0       0       0       0

 Cartesian Hessian Update
 Hessian Updated using BFGS Update


** GEOMETRY OPTIMIZATION IN DELOCALIZED INTERNAL COORDINATES **
   Searching for a Minimum

   Optimization Cycle:   3

                       Coordinates (Angstroms)
     ATOM                X               Y               Z
      1  C        -1.2613205733   -1.4223336479    0.0760346539
      2  C        -0.6681649935   -0.0733933850   -0.3449466230
      3  C        -1.6092153798    1.0735081414    0.0311361443
      4  C         0.6987992479    0.1667518290    0.3109365779
      5  C         1.7685269741   -0.8699657396   -0.0909400631
      6  O         1.2496369238    1.3731125280   -0.0572670544
      7  H        -2.2874126854   -1.5236257003   -0.3006551526
      8  H        -1.3037203086   -1.4947678557    1.1743045752
      9  H        -0.6802031089   -2.2735700654   -0.3002446064
     10  H        -0.5017315872   -0.0636426802   -1.4350544020
     11  H        -1.7866027345    1.0770332201    1.1178974307
     12  H        -2.5807743545    0.9662043704   -0.4681907981
     13  H        -1.1742653193    2.0412509347   -0.2485652998
     14  H         0.5987947777    0.1393944879    1.4190106651
     15  H         1.8786491955   -0.8849072888   -1.1823290197
     16  H         1.4475771139   -1.8605116551    0.2507722005
     17  H         2.7329692422   -0.6290217628    0.3671067070
   Point Group: c1    Number of degrees of freedom:    45


   Energy is   -272.202063091

 GETINT wrote B to file, NVib is           45
 Hessian Updated using BFGS Update

 39 Hessian modes will be used to form the next step
  Hessian Eigenvalues:
     0.003378    0.004726    0.005194    0.005742    0.033296    0.037217
     0.045260    0.046884    0.053362    0.055292    0.055552    0.055663
     0.056293    0.056816    0.059919    0.094889    0.147799    0.161136
     0.162354    0.166503    0.166948    0.173649    0.238109    0.261320
     0.288195    0.293484    0.297917    0.339154    0.340384    0.341603
     0.341788    0.341884    0.341983    0.342218    0.342949    0.344138
     0.344659    0.349426    0.376990

 Minimum Search - Taking Simple RFO Step
 Searching for Lamda that Minimizes Along All modes
 Value Taken    Lamda =  -0.00017957
 Step Taken.  Stepsize is  0.074003

                             Maximum     Tolerance    Cnvgd?
         Gradient           0.001779      0.000300      NO
         Displacement       0.033053      0.001200      NO
         Energy change     -0.000620      0.000001      NO


 New Cartesian Coordinates Obtained by Inverse Iteration

 Displacement from previous Coordinates is:  0.077541
 ----------------------------------------------------------------
             Standard Nuclear Orientation (Angstroms)
    I     Atom           X                Y                Z
 ----------------------------------------------------------------
    1      C      -1.2528997632    -1.4200624567     0.0755707852
    2      C      -0.6663554818    -0.0696851916    -0.3453491841
    3      C      -1.6124512817     1.0751486900     0.0295851215
    4      C       0.6986746726     0.1748986403     0.3173831039
    5      C       1.7638390920    -0.8742211362    -0.0928488747
    6      O       1.2562360502     1.3700894115    -0.0568861059
    7      H      -2.2777727469    -1.5275260141    -0.3019675159
    8      H      -1.2963912662    -1.4913229132     1.1734948587
    9      H      -0.6666590212    -2.2680908985    -0.2990440019
   10      H      -0.4966906297    -0.0591163452    -1.4345015983
   11      H      -1.7925977406     1.0764238264     1.1155719371
   12      H      -2.5824646001     0.9670326984    -0.4713852598
   13      H      -1.1808459515     2.0451478938    -0.2469413139
   14      H       0.5946087940     0.1286515227     1.4241811822
   15      H       1.8619607059    -0.8940209514    -1.1845286660
   16      H       1.4400313666    -1.8598428417     0.2606723120
   17      H       2.7313202318    -0.6319882036     0.3559991554
 ----------------------------------------------------------------
 Molecular Point Group                 C1    NOp =  1
 Largest Abelian Subgroup              C1    NOp =  1
 Nuclear Repulsion Energy =   253.4618279066 hartrees
 There are       25 alpha and       24 beta electrons
 Applying Cartesian multipole field
    Component          Value
    ---------          -----
     (2,0,0)        1.00000E-11
     (0,2,0)        2.00000E-11
     (0,0,2)       -3.00000E-11
 Nucleus-field energy     =     0.0000000065 hartrees
 Requested basis set is non-standard
 There are 138 shells and 314 basis functions
 A cutoff of  1.0D-12 yielded   9200 shell pairs
 There are     47758 function pairs (     57491 Cartesian)
 Smallest overlap matrix eigenvalue = 1.54E-05
 Guess MOs from SCF MO coefficient file
Reading MOs from coefficient file
Reading MOs from coefficient file
 An unrestricted hybrid HF-DFT SCF calculation will be
 performed using Pulay DIIS + Geometric Direct Minimization
 Exchange:     0.5679 Hartree-Fock + 1.0000 M08SO
 SCF converges when RMS gradient is below 1.0E-08
Geometry optimization detected.  Setting ReadMinima to 0
Setting SaveMinima to 0
 ---------------------------------------
  Cycle       Energy        RMS Gradient
 ---------------------------------------
    1    -272.2063815974      2.09E-04 Done DIIS. Switching to GDM
    2    -272.2021269659      1.72E-03 Normal BFGS step
    3    -272.2021408771      7.61E-04 Normal BFGS step
    4    -272.2021507618      6.19E-04 Normal BFGS step
    5    -272.2021530775      5.99E-04 Normal BFGS step
    6    -272.2021544332      5.61E-04 Normal BFGS step
    7    -272.2021556348      5.14E-04 Normal BFGS step
    8    -272.2021572554      4.66E-04 Normal BFGS step
    9    -272.2021603511      4.78E-04 Normal BFGS step
   10    -272.2021627856      3.65E-04 Normal BFGS step
   11    -272.2021639159      2.22E-04 Normal BFGS step
   12    -272.2021641827      7.92E-05 Normal BFGS step
   13    -272.2021642397      3.56E-05 Normal BFGS step
   14    -272.2021642452      7.74E-06 Normal BFGS step
   15    -272.2021642461      2.21E-06 Normal BFGS step
   16    -272.2021642462      5.52E-07 Normal BFGS step
   17    -272.2021642462      2.88E-07 Normal BFGS step
   18    -272.2021642462      1.10E-07 Normal BFGS step
   19    -272.2021642462      3.31E-08 Normal BFGS step
   20    -272.2021642463      1.43E-08 Normal BFGS step
   GDM::WARNING energy changes are now smaller than effective accuracy.
   GDM::        calculation will continue, but THRESH should be increased
   GDM::        or SCF_CONVERGENCE decreased.
   GDM::        effective_thresh =   4.959406271071165E-009
   21    -272.2021642462      2.85E-09 Convergence criterion met
 ---------------------------------------
 <S^2> = 0.7537
 SCF time:  CPU 1580.79 s  wall 1583.41 s
 SCF   energy in the final basis set = -272.2021642462
 Total energy in the final basis set = -272.2021642462
 Analysis of SCF Wavefunction
 
 --------------------------------------------------------------
                    Orbital Energies (a.u.)
 --------------------------------------------------------------
 
 Alpha MOs
 -- Occupied --
-19.608 -10.555 -10.510 -10.506 -10.493 -10.486  -1.148  -0.910
 -0.838  -0.780  -0.718  -0.653  -0.574  -0.551  -0.530  -0.524
 -0.482  -0.469  -0.462  -0.456  -0.438  -0.415  -0.408  -0.381
 -0.357
 -- Virtual --
 -0.026  -0.012  -0.012  -0.004   0.014   0.015   0.020   0.025
  0.029   0.047   0.052   0.063   0.067   0.072   0.081   0.089
  0.103   0.115   0.120   0.123   0.123   0.129   0.132   0.137
  0.142   0.147   0.159   0.160   0.168   0.179   0.184   0.191
  0.199   0.218   0.221   0.228   0.241   0.252   0.266   0.272
  0.280   0.296   0.300   0.303   0.309   0.318   0.327   0.338
  0.348   0.369   0.390   0.419   0.443   0.459   0.463   0.481
  0.494   0.512   0.534   0.543   0.553   0.560   0.566   0.571
  0.578   0.580   0.587   0.598   0.607   0.620   0.629   0.631
  0.651   0.660   0.680   0.690   0.701   0.704   0.710   0.723
  0.769   0.784   0.793   0.835   0.867   0.877   0.887   0.902
  0.925   0.945   0.971   0.994   1.007   1.025   1.053   1.062
  1.079   1.096   1.100   1.113   1.121   1.136   1.153   1.159
  1.170   1.182   1.196   1.203   1.229   1.245   1.260   1.274
  1.296   1.301   1.305   1.314   1.330   1.344   1.353   1.370
  1.383   1.391   1.405   1.423   1.433   1.457   1.482   1.484
  1.501   1.511   1.539   1.555   1.564   1.584   1.589   1.610
  1.611   1.623   1.663   1.671   1.703   1.725   1.755   1.814
  1.831   1.859   2.101   2.162   2.403   2.406   2.420   2.467
  2.528   2.544   2.577   2.599   2.643   2.678   2.690   2.722
  2.737   2.749   2.788   2.819   2.856   2.877   2.900   2.918
  2.926   2.936   2.959   2.985   3.003   3.010   3.017   3.041
  3.077   3.125   3.147   3.171   3.182   3.206   3.225   3.251
  3.279   3.288   3.307   3.323   3.341   3.360   3.381   3.401
  3.410   3.437   3.459   3.485   3.509   3.538   3.552   3.568
  3.587   3.597   3.626   3.647   3.671   3.707   3.710   3.735
  3.748   3.764   3.777   3.796   3.817   3.866   3.876   3.911
  3.929   3.947   3.962   3.978   3.985   4.003   4.012   4.038
  4.058   4.081   4.092   4.130   4.143   4.161   4.175   4.190
  4.199   4.224   4.234   4.250   4.293   4.336   4.367   4.378
  4.401   4.412   4.424   4.446   4.459   4.488   4.500   4.524
  4.566   4.576   4.631   4.648   4.679   4.702   4.720   4.847
  4.978   4.997   5.055   5.174   5.201   5.242   5.305   5.346
  5.369   5.404   5.408   5.505   5.545   5.564   5.584   5.607
  5.639   5.649   5.665   5.865   5.916   6.666   6.811   6.825
  7.254   7.285   7.568  24.066  24.117  24.180  24.239  24.313
 49.783
 
 Beta MOs
 -- Occupied --
-19.583 -10.556 -10.507 -10.506 -10.493 -10.486  -1.096  -0.904
 -0.827  -0.779  -0.711  -0.648  -0.548  -0.544  -0.520  -0.502
 -0.470  -0.465  -0.454  -0.450  -0.420  -0.406  -0.401  -0.340
 -- Virtual --
 -0.091  -0.025  -0.012  -0.012  -0.004   0.013   0.015   0.019
  0.025   0.029   0.047   0.051   0.063   0.068   0.072   0.081
  0.090   0.103   0.116   0.120   0.123   0.123   0.129   0.132
  0.138   0.142   0.147   0.159   0.160   0.169   0.180   0.184
  0.191   0.200   0.218   0.221   0.229   0.241   0.253   0.267
  0.274   0.280   0.298   0.300   0.302   0.309   0.318   0.329
  0.344   0.348   0.373   0.391   0.419   0.444   0.461   0.464
  0.481   0.495   0.512   0.535   0.543   0.554   0.560   0.567
  0.571   0.577   0.580   0.588   0.596   0.607   0.620   0.628
  0.631   0.652   0.660   0.680   0.690   0.702   0.704   0.710
  0.723   0.772   0.786   0.793   0.836   0.867   0.877   0.887
  0.903   0.925   0.947   0.973   0.995   1.008   1.025   1.054
  1.062   1.085   1.097   1.102   1.115   1.128   1.137   1.158
  1.168   1.180   1.184   1.198   1.207   1.229   1.249   1.260
  1.275   1.295   1.301   1.306   1.316   1.331   1.345   1.356
  1.370   1.382   1.396   1.407   1.424   1.435   1.458   1.483
  1.486   1.502   1.512   1.541   1.556   1.567   1.588   1.591
  1.611   1.613   1.628   1.663   1.675   1.705   1.729   1.761
  1.838   1.850   1.890   2.114   2.169   2.403   2.412   2.425
  2.466   2.527   2.540   2.578   2.596   2.639   2.673   2.688
  2.719   2.735   2.737   2.782   2.818   2.854   2.876   2.895
  2.916   2.926   2.934   2.957   2.981   2.997   3.009   3.014
  3.041   3.077   3.125   3.147   3.169   3.181   3.204   3.223
  3.250   3.276   3.286   3.303   3.323   3.339   3.358   3.379
  3.396   3.406   3.434   3.459   3.475   3.505   3.536   3.551
  3.565   3.581   3.595   3.618   3.642   3.669   3.692   3.706
  3.729   3.745   3.761   3.771   3.794   3.813   3.856   3.874
  3.907   3.927   3.947   3.960   3.974   3.981   4.001   4.011
  4.036   4.057   4.078   4.088   4.129   4.141   4.160   4.175
  4.187   4.195   4.224   4.233   4.247   4.289   4.324   4.365
  4.377   4.400   4.409   4.415   4.443   4.458   4.479   4.499
  4.523   4.563   4.575   4.624   4.645   4.674   4.700   4.712
  4.848   5.011   5.089   5.137   5.184   5.236   5.290   5.332
  5.357   5.387   5.411   5.443   5.506   5.548   5.578   5.592
  5.608   5.640   5.649   5.666   5.860   5.920   6.615   6.897
  6.988   7.255   7.367   7.554  24.065  24.116  24.180  24.237
 24.307  49.783
 --------------------------------------------------------------
 
          Ground-State Mulliken Net Atomic Charges

     Atom                 Charge (a.u.)    Spin (a.u.)
  --------------------------------------------------------
      1 C                    -0.680517      -0.004235
      2 C                    -0.087458       0.028752
      3 C                    -0.632222       0.005833
      4 C                    -0.276961      -0.056089
      5 C                    -0.663663       0.075677
      6 O                    -0.117228       0.890777
      7 H                     0.207283       0.001900
      8 H                     0.225276      -0.000017
      9 H                     0.189196      -0.000570
     10 H                     0.275133       0.001900
     11 H                     0.205670      -0.000030
     12 H                     0.198056      -0.001220
     13 H                     0.207999       0.001213
     14 H                     0.299553       0.039630
     15 H                     0.225575      -0.003820
     16 H                     0.206194       0.020990
     17 H                     0.218115      -0.000692
  --------------------------------------------------------
  Sum of atomic charges =     0.000000
  Sum of spin   charges =     1.000000

 -----------------------------------------------------------------
                    Cartesian Multipole Moments
 -----------------------------------------------------------------
    Charge (ESU x 10^10)
                 0.0000
    Dipole Moment (Debye)
         X      -0.7417      Y      -2.0303      Z       0.2756
       Tot       2.1790
    Quadrupole Moments (Debye-Ang)
        XX     -40.1822     XY      -3.4482     YY     -42.7825
        XZ       0.4728     YZ       0.4635     ZZ     -39.4167
    Octopole Moments (Debye-Ang^2)
       XXX       5.6848    XXY      -3.5139    XYY      -2.1121
       YYY       0.8441    XXZ      -1.0355    XYZ       0.2013
       YYZ       0.1694    XZZ       1.9465    YZZ       1.2406
       ZZZ       0.5751
    Hexadecapole Moments (Debye-Ang^3)
      XXXX    -494.1785   XXXY       1.1960   XXYY    -150.4830
      XYYY      -3.7064   YYYY    -334.1455   XXXZ       7.3320
      XXYZ      -0.1783   XYYZ       1.0273   YYYZ      -0.4887
      XXZZ     -98.9049   XYZZ       0.9037   YYZZ     -72.7618
      XZZZ      -1.9189   YZZZ       0.6341   ZZZZ     -88.5380
 -----------------------------------------------------------------
 Calculating analytic gradient of the SCF energy
 Gradient of Coulomb and Exchange Energy
            1           2           3           4           5           6
    1   3.3537633   4.4511526   3.4210749  -2.1364756  -4.1709265  -7.1307690
    2   2.4420075   1.0594036  -1.4599046   2.7971962   1.9960484 -11.5789939
    3   0.4537898   1.1379333  -0.3405963  -1.7031578   0.1740205   1.9202926
            7           8           9          10          11          12
    1   3.8478081   0.5068893  -1.6376452  -0.4896128   1.3402223   3.7531464
    2   0.9794688   1.1264829   3.5585217  -0.0729398  -0.7673867  -0.1804967
    3   1.1155985  -3.7401029   1.0543499   5.0292427  -3.6705150   1.5271800
           13          14          15          16          17
    1  -0.7355559   0.1998391  -0.9750532   0.4594449  -4.0573027
    2  -3.9915762   0.0187902   0.6276838   3.8406545  -0.3949598
    3   0.8205392  -5.1092271   3.8857906  -1.0425511  -1.5125871
 Gradient of SCF Energy
            1           2           3           4           5           6
    1   0.0003068  -0.0001968   0.0001032  -0.0004475   0.0002654   0.0000415
    2  -0.0002593   0.0004159   0.0001813  -0.0003658   0.0011580  -0.0003283
    3  -0.0003346   0.0008085  -0.0002398  -0.0019430   0.0005790   0.0000914
            7           8           9          10          11          12
    1  -0.0000628  -0.0000022   0.0001385   0.0003110  -0.0000288  -0.0000477
    2   0.0000811   0.0000859  -0.0001177  -0.0001229  -0.0000979  -0.0000800
    3   0.0000094   0.0002149   0.0001120  -0.0002392   0.0002209   0.0000855
           13          14          15          16          17
    1   0.0001640   0.0000029  -0.0001285  -0.0002215  -0.0001974
    2   0.0000038   0.0000585  -0.0001661  -0.0003432  -0.0001032
    3   0.0000571   0.0008293  -0.0001761  -0.0001724   0.0000971
 Max gradient component =       1.943E-03
 RMS gradient           =       4.111E-04
 Gradient time:  CPU 79.04 s  wall 79.19 s
 Geometry Optimization Parameters
   NAtoms,    NIC,     NZ,  NCons,   NDum,   NFix, NCnnct, MaxDiis
       17     116       0       0       0       0       0       0

 Cartesian Hessian Update
 Hessian Updated using BFGS Update


** GEOMETRY OPTIMIZATION IN DELOCALIZED INTERNAL COORDINATES **
   Searching for a Minimum

   Optimization Cycle:   4

                       Coordinates (Angstroms)
     ATOM                X               Y               Z
      1  C        -1.2528997632   -1.4200624567    0.0755707852
      2  C        -0.6663554818   -0.0696851916   -0.3453491841
      3  C        -1.6124512817    1.0751486900    0.0295851215
      4  C         0.6986746726    0.1748986403    0.3173831039
      5  C         1.7638390920   -0.8742211362   -0.0928488747
      6  O         1.2562360502    1.3700894115   -0.0568861059
      7  H        -2.2777727469   -1.5275260141   -0.3019675159
      8  H        -1.2963912662   -1.4913229132    1.1734948587
      9  H        -0.6666590212   -2.2680908985   -0.2990440019
     10  H        -0.4966906297   -0.0591163452   -1.4345015983
     11  H        -1.7925977406    1.0764238264    1.1155719371
     12  H        -2.5824646001    0.9670326984   -0.4713852598
     13  H        -1.1808459515    2.0451478938   -0.2469413139
     14  H         0.5946087940    0.1286515227    1.4241811822
     15  H         1.8619607059   -0.8940209514   -1.1845286660
     16  H         1.4400313666   -1.8598428417    0.2606723120
     17  H         2.7313202318   -0.6319882036    0.3559991554
   Point Group: c1    Number of degrees of freedom:    45


   Energy is   -272.202164246

 GETINT wrote B to file, NVib is           45
 Hessian Updated using BFGS Update

 40 Hessian modes will be used to form the next step
  Hessian Eigenvalues:
     0.003354    0.004729    0.005049    0.005340    0.035898    0.039413
     0.044649    0.047664    0.052519    0.054817    0.055340    0.055711
     0.056282    0.056338    0.058268    0.094920    0.148558    0.159515
     0.160684    0.163596    0.165882    0.167296    0.175161    0.229409
     0.253638    0.287114    0.294929    0.299217    0.337042    0.339228
     0.341379    0.341614    0.341885    0.341979    0.342231    0.342551
     0.343061    0.345055    0.345648    0.371853

 Minimum Search - Taking Simple RFO Step
 Searching for Lamda that Minimizes Along All modes
 Value Taken    Lamda =  -0.00003375
 Step Taken.  Stepsize is  0.061045

                             Maximum     Tolerance    Cnvgd?
         Gradient           0.000669      0.000300      NO
         Displacement       0.041307      0.001200      NO
         Energy change     -0.000101      0.000001      NO


 New Cartesian Coordinates Obtained by Inverse Iteration

 Displacement from previous Coordinates is:  0.075109
 ----------------------------------------------------------------
             Standard Nuclear Orientation (Angstroms)
    I     Atom           X                Y                Z
 ----------------------------------------------------------------
    1      C      -1.2574006323    -1.4194322289     0.0782015388
    2      C      -0.6650261249    -0.0718101711    -0.3428933141
    3      C      -1.6115504583     1.0753249554     0.0254340283
    4      C       0.6996067392     0.1722960197     0.3253440088
    5      C       1.7675237356    -0.8727683769    -0.0964858321
    6      O       1.2534044613     1.3709099299    -0.0413784916
    7      H      -2.2828300032    -1.5226569960    -0.2986636928
    8      H      -1.3001801037    -1.4924664353     1.1756971544
    9      H      -0.6757715848    -2.2693759272    -0.2986925621
   10      H      -0.4936423379    -0.0621563237    -1.4312627476
   11      H      -1.7948178922     1.0823756538     1.1105011979
   12      H      -2.5799950765     0.9655433403    -0.4780726626
   13      H      -1.1803034071     2.0442865439    -0.2549844726
   14      H       0.5949202599     0.1149651604     1.4301632018
   15      H       1.8556625676    -0.8909903945    -1.1886851604
   16      H       1.4538490553    -1.8590753094     0.2625723900
   17      H       2.7380932323    -0.6234537095     0.3422113513
 ----------------------------------------------------------------
 Molecular Point Group                 C1    NOp =  1
 Largest Abelian Subgroup              C1    NOp =  1
 Nuclear Repulsion Energy =   253.3777646323 hartrees
 There are       25 alpha and       24 beta electrons
 Applying Cartesian multipole field
    Component          Value
    ---------          -----
     (2,0,0)        1.00000E-11
     (0,2,0)        2.00000E-11
     (0,0,2)       -3.00000E-11
 Nucleus-field energy     =     0.0000000065 hartrees
 Requested basis set is non-standard
 There are 138 shells and 314 basis functions
 A cutoff of  1.0D-12 yielded   9200 shell pairs
 There are     47758 function pairs (     57491 Cartesian)
 Smallest overlap matrix eigenvalue = 1.55E-05
 Guess MOs from SCF MO coefficient file
Reading MOs from coefficient file
Reading MOs from coefficient file
 An unrestricted hybrid HF-DFT SCF calculation will be
 performed using Pulay DIIS + Geometric Direct Minimization
 Exchange:     0.5679 Hartree-Fock + 1.0000 M08SO
 SCF converges when RMS gradient is below 1.0E-08
Geometry optimization detected.  Setting ReadMinima to 0
Setting SaveMinima to 0
 ---------------------------------------
  Cycle       Energy        RMS Gradient
 ---------------------------------------
    1    -272.2028918597      1.16E-04 Done DIIS. Switching to GDM
    2    -272.2021734260      4.76E-04 Normal BFGS step
    3    -272.2021785249      3.67E-04 Normal BFGS step
    4    -272.2021796060      1.56E-04 Normal BFGS step
    5    -272.2021799366      1.72E-04 Normal BFGS step
    6    -272.2021800524      1.49E-04 Normal BFGS step
    7    -272.2021801369      1.31E-04 Normal BFGS step
    8    -272.2021801983      1.10E-04 Normal BFGS step
    9    -272.2021802879      1.09E-04 Normal BFGS step
   10    -272.2021804675      8.97E-05 Normal BFGS step
   11    -272.2021806016      5.98E-05 Normal BFGS step
   12    -272.2021806505      3.18E-05 Normal BFGS step
   13    -272.2021806600      1.44E-05 Normal BFGS step
   14    -272.2021806613      5.51E-06 Normal BFGS step
   15    -272.2021806614      1.56E-06 Normal BFGS step
   16    -272.2021806615      2.87E-07 Normal BFGS step
   GDM::WARNING energy changes are now smaller than effective accuracy.
   GDM::        calculation will continue, but THRESH should be increased
   GDM::        or SCF_CONVERGENCE decreased.
[...]
 H         -0.307  0.524 -0.132   -0.336 -0.364 -0.188    0.519  0.080  0.001
 H          0.162 -0.032 -0.020   -0.298  0.247  0.031   -0.065  0.336  0.059
 H          0.000  0.108 -0.050    0.123 -0.089 -0.130   -0.061  0.269 -0.055
 H          0.231 -0.202 -0.075   -0.111  0.024 -0.122    0.190 -0.188 -0.094
 H          0.091 -0.166  0.016    0.225  0.011  0.083   -0.239  0.104 -0.079
 H         -0.038  0.144  0.025    0.187  0.129 -0.010   -0.007 -0.010 -0.008
 H          0.070 -0.044 -0.006    0.223 -0.105  0.074   -0.026  0.005 -0.019
 H         -0.045  0.118 -0.006   -0.230  0.355  0.101    0.005  0.002 -0.016
 TransDip   0.036  0.037 -0.027    0.063 -0.002 -0.021    0.041  0.007  0.005

 Mode:                22                     23                     24
 Frequency:      1251.74                1275.83                1329.94
 Force Cnst:      1.1683                 1.3905                 1.4910
 Red. Mass:       1.2656                 1.4499                 1.4308
 IR Active:          YES                    YES                    YES
 IR Intens:        8.602                  2.697                  0.615
 Raman Active:       YES                    YES                    YES
               X      Y      Z        X      Y      Z        X      Y      Z
 C         -0.004 -0.005 -0.020    0.039  0.006  0.063   -0.015  0.021  0.048
 C          0.015  0.015  0.041   -0.103 -0.028 -0.103    0.018 -0.173  0.012
 C         -0.007 -0.007 -0.033    0.028  0.013  0.046    0.013  0.027 -0.056
 C          0.093 -0.036  0.007   -0.044 -0.072  0.015    0.007  0.025 -0.002
 C         -0.021  0.020 -0.067    0.004  0.038 -0.009   -0.004 -0.015 -0.004
 O         -0.024 -0.039  0.032    0.007  0.006  0.018    0.006  0.004 -0.001
 H         -0.026 -0.023  0.045    0.091  0.155 -0.138    0.063  0.101 -0.163
 H          0.024  0.040 -0.012   -0.126 -0.099  0.038    0.067 -0.008  0.041
 H          0.007 -0.030  0.052   -0.073  0.029 -0.152    0.104  0.184 -0.126
 H         -0.230  0.037  0.005    0.417  0.168 -0.026   -0.141  0.834 -0.007
 H          0.065 -0.050 -0.015   -0.137  0.018  0.010   -0.042 -0.058 -0.054
 H         -0.061  0.057  0.058    0.099 -0.119 -0.072   -0.121  0.064  0.175
 H          0.012  0.013  0.058   -0.052 -0.007 -0.124   -0.142  0.150  0.130
 H         -0.406  0.795 -0.004    0.475  0.544  0.079   -0.055 -0.086 -0.011
 H          0.180 -0.158 -0.043    0.051 -0.179 -0.003   -0.018  0.062 -0.005
 H          0.017  0.070  0.095   -0.008  0.021 -0.046   -0.002  0.000  0.034
 H         -0.098  0.025  0.112    0.044 -0.125 -0.002   -0.036  0.056  0.026
 TransDip   0.060  0.063 -0.035   -0.027 -0.011  0.044   -0.005 -0.024 -0.007

 Mode:                25                     26                     27
 Frequency:      1354.09                1363.03                1383.78
 Force Cnst:      1.6392                 1.3944                 1.4948
 Red. Mass:       1.5173                 1.2739                 1.3250
 IR Active:          YES                    YES                    YES
 IR Intens:        3.169                  7.869                 11.031
 Raman Active:       YES                    YES                    YES
               X      Y      Z        X      Y      Z        X      Y      Z
 C          0.033 -0.002  0.006   -0.010 -0.024  0.000   -0.029 -0.085  0.017
 C         -0.149 -0.014  0.019   -0.018  0.000  0.011   -0.006  0.061 -0.004
 C          0.032  0.004  0.016    0.017 -0.018 -0.005    0.070 -0.100 -0.018
 C          0.125  0.041 -0.045    0.037  0.056 -0.019   -0.014 -0.019  0.003
 C         -0.005 -0.038 -0.004   -0.092  0.081  0.038    0.025 -0.015 -0.008
 O         -0.009 -0.014  0.003   -0.012 -0.027  0.004    0.000  0.004 -0.001
 H          0.009  0.074  0.031   -0.019  0.114 -0.007   -0.009  0.286 -0.118
 H         -0.141  0.071  0.006    0.024  0.079  0.007    0.110  0.330  0.040
 H         -0.046 -0.002 -0.092    0.085  0.056 -0.016    0.202  0.161 -0.147
 H          0.648  0.002  0.138    0.085  0.003  0.028    0.008 -0.159 -0.002
 H         -0.115 -0.049 -0.006   -0.051  0.060 -0.014   -0.227  0.396 -0.062
 H          0.038 -0.088  0.017   -0.019  0.077  0.037   -0.087  0.396  0.145
 H         -0.026 -0.003 -0.069   -0.080  0.035  0.024   -0.377  0.160  0.157
 H         -0.528 -0.154 -0.102   -0.110 -0.150 -0.035    0.057  0.044  0.010
 H          0.005  0.258 -0.012    0.377 -0.337  0.073   -0.102  0.080 -0.018
 H         -0.079  0.053  0.142    0.485 -0.206 -0.210   -0.104  0.052  0.057
 H         -0.055  0.172 -0.012    0.187 -0.448 -0.246   -0.031  0.062  0.066
 TransDip  -0.006  0.036 -0.044    0.076  0.025 -0.041   -0.028  0.101  0.018

 Mode:                28                     29                     30
 Frequency:      1399.15                1457.28                1463.93
 Force Cnst:      1.4487                 1.3158                 1.3269
 Red. Mass:       1.2560                 1.0516                 1.0509
 IR Active:          YES                    YES                    YES
 IR Intens:        8.301                  9.414                  1.016
 Raman Active:       YES                    YES                    YES
               X      Y      Z        X      Y      Z        X      Y      Z
 C         -0.052 -0.102  0.032    0.006  0.004 -0.017   -0.036  0.010 -0.013
 C          0.017  0.015 -0.003    0.007 -0.005 -0.004   -0.010  0.018  0.001
 C         -0.061  0.060  0.024   -0.006 -0.007  0.005    0.035  0.013  0.016
 C          0.006 -0.001  0.000   -0.027 -0.012 -0.015    0.007  0.003 -0.004
 C         -0.001 -0.004 -0.008   -0.024 -0.012 -0.041    0.008  0.006 -0.008
 O         -0.002 -0.002  0.000    0.002  0.004  0.001   -0.002 -0.002  0.000
 H          0.008  0.378 -0.236   -0.073  0.087  0.175    0.033  0.189 -0.210
 H          0.229  0.404  0.066   -0.113 -0.130 -0.023    0.401 -0.268 -0.009
 H          0.293  0.251 -0.192    0.111  0.026  0.111    0.084 -0.102  0.397
 H         -0.013 -0.036 -0.012   -0.001  0.030 -0.006    0.028 -0.026  0.006
 H          0.233 -0.253  0.069    0.089  0.031  0.017   -0.330 -0.327 -0.047
 H          0.099 -0.267 -0.189    0.038  0.051 -0.090   -0.100  0.159  0.211
 H          0.288 -0.143 -0.131   -0.065  0.023  0.008   -0.021 -0.091 -0.384
 H         -0.021  0.006  0.002    0.097  0.029 -0.007   -0.013 -0.018 -0.008
 H         -0.014  0.060 -0.008    0.061  0.476 -0.035   -0.138 -0.014 -0.014
 H          0.015  0.020  0.068    0.297  0.124  0.578    0.076 -0.012  0.012
 H         -0.013 -0.023  0.035    0.044 -0.423  0.093   -0.043 -0.057  0.144
 TransDip   0.076  0.024 -0.046    0.049  0.003  0.085    0.014 -0.028  0.008

 Mode:                31                     32                     33
 Frequency:      1471.48                1476.21                1481.40
 Force Cnst:      1.3457                 1.3434                 1.3772
 Red. Mass:       1.0548                 1.0463                 1.0651
 IR Active:          YES                    YES                    YES
 IR Intens:        1.292                 12.953                  3.993
 Raman Active:       YES                    YES                    YES
               X      Y      Z        X      Y      Z        X      Y      Z
 C         -0.009  0.005  0.022    0.011 -0.009  0.003   -0.020  0.028  0.013
 C          0.011  0.027 -0.004    0.005  0.006 -0.010   -0.047 -0.005  0.003
 C          0.012  0.012 -0.033    0.003  0.012 -0.023   -0.018 -0.023 -0.009
 C         -0.018 -0.017  0.002    0.011  0.020 -0.010    0.018  0.011 -0.005
 C         -0.022 -0.016  0.004    0.021  0.028 -0.025    0.004  0.008 -0.011
 O          0.002  0.004 -0.001   -0.003 -0.005  0.001   -0.001 -0.003  0.001
 H          0.109 -0.166 -0.257   -0.031 -0.048  0.108    0.151 -0.046 -0.411
 H          0.186  0.102  0.026   -0.171  0.081  0.001    0.442 -0.100  0.015
 H         -0.205 -0.088 -0.100   -0.005  0.048 -0.134   -0.196 -0.184  0.170
 H         -0.023 -0.072 -0.009    0.034 -0.033 -0.010    0.081 -0.011  0.023
 H         -0.318  0.089 -0.075   -0.215  0.099 -0.049    0.322  0.304  0.045
 H         -0.168 -0.271  0.384   -0.113 -0.244  0.266    0.128 -0.112 -0.243
 H          0.313 -0.065  0.185    0.256 -0.046  0.174   -0.059  0.107  0.335
 H          0.044  0.028  0.007   -0.004 -0.037 -0.015   -0.037 -0.021 -0.007
 H          0.299  0.225  0.018   -0.454 -0.152 -0.045   -0.142 -0.020 -0.016
 H         -0.058  0.079  0.202    0.297 -0.082 -0.045    0.123 -0.022  0.021
 H          0.111 -0.041 -0.266   -0.151 -0.186  0.486   -0.050 -0.078  0.167
 TransDip   0.016 -0.030  0.012   -0.025 -0.062  0.094    0.064 -0.006 -0.003

 Mode:                34                     35                     36
 Frequency:      1491.46                2901.71                2966.93
 Force Cnst:      1.3726                 5.3449                 5.3974
 Red. Mass:       1.0473                 1.0774                 1.0407
 IR Active:          YES                    YES                    YES
 IR Intens:        9.872                 25.340                 15.088
 Raman Active:       YES                    YES                    YES
               X      Y      Z        X      Y      Z        X      Y      Z
 C         -0.012 -0.010 -0.033   -0.001  0.000  0.000    0.018  0.034 -0.036
 C         -0.020 -0.005 -0.029    0.000  0.000  0.006   -0.002 -0.001  0.014
 C         -0.009  0.002 -0.023    0.000  0.000  0.000   -0.002  0.002  0.000
 C          0.006 -0.005  0.008    0.005 -0.001 -0.079   -0.001  0.000  0.001
 C          0.002 -0.007  0.013    0.000 -0.001  0.004    0.000 -0.001  0.000
 O          0.000  0.001  0.000    0.002  0.003 -0.002    0.000  0.000  0.000
 H         -0.139  0.390  0.220    0.007 -0.001  0.005   -0.421 -0.036 -0.167
 H         -0.009 -0.315 -0.039   -0.003 -0.003 -0.003   -0.024 -0.039  0.752
 H          0.375  0.078  0.390   -0.002  0.003  0.002    0.237 -0.326 -0.159
 H          0.055  0.015 -0.023    0.015  0.001 -0.093    0.026  0.003 -0.170
 H         -0.009  0.249 -0.017   -0.003  0.002 -0.005    0.005  0.002 -0.034
 H         -0.026 -0.280  0.089    0.005  0.003  0.005    0.039  0.007  0.022
 H          0.194  0.016  0.329   -0.003 -0.006  0.001   -0.019 -0.034  0.012
 H          0.014  0.016  0.009   -0.091 -0.036  0.986    0.003  0.001 -0.009
 H          0.081 -0.040  0.015    0.001  0.000 -0.039    0.001  0.000  0.000
 H         -0.154  0.005 -0.095    0.010  0.024 -0.008    0.003  0.008 -0.004
 H          0.020  0.140 -0.124   -0.016 -0.008 -0.007   -0.004 -0.002 -0.002
 TransDip   0.036  0.033  0.088    0.037  0.022 -0.155    0.034  0.112 -0.042

 Mode:                37                     38                     39
 Frequency:      2969.90                2980.65                2998.09
 Force Cnst:      5.4119                 5.6393                 5.4678
 Red. Mass:       1.0414                 1.0773                 1.0325
 IR Active:          YES                    YES                    YES
 IR Intens:       13.744                 25.069                 10.202
 Raman Active:       YES                    YES                    YES
               X      Y      Z        X      Y      Z        X      Y      Z
 C          0.000  0.000 -0.003    0.005  0.012  0.006   -0.002  0.002  0.003
 C         -0.004  0.001  0.021    0.011  0.000 -0.075    0.000  0.000  0.000
 C          0.028 -0.029 -0.031    0.010 -0.012  0.004    0.000  0.001  0.000
 C         -0.001  0.000  0.002    0.001  0.000 -0.009    0.000 -0.001  0.000
 C          0.000  0.000  0.000    0.000 -0.001  0.002    0.027 -0.033 -0.020
 O          0.000  0.000  0.000    0.000  0.000  0.000    0.000  0.001  0.000
 H          0.011 -0.001  0.003   -0.157 -0.011 -0.057    0.004  0.002  0.003
 H         -0.001 -0.004  0.033   -0.003 -0.004  0.050    0.001  0.002 -0.026
 H         -0.008  0.006  0.004    0.099 -0.129 -0.060    0.016 -0.023 -0.012
 H          0.039  0.000 -0.255   -0.134 -0.004  0.903    0.003  0.000 -0.003
 H         -0.113  0.000  0.717   -0.016  0.001  0.098    0.001  0.000 -0.006
 H         -0.390 -0.055 -0.216   -0.182 -0.028 -0.096    0.003  0.000  0.001
 H          0.178  0.390 -0.126    0.081  0.170 -0.051   -0.005 -0.010  0.003
 H          0.003  0.000 -0.014   -0.005 -0.002  0.089   -0.001 -0.001  0.000
 H          0.000  0.000  0.009   -0.002  0.002 -0.011   -0.040  0.012  0.645
 H          0.001  0.005 -0.002    0.005  0.012 -0.005    0.169  0.503 -0.201
 H         -0.004 -0.002 -0.003   -0.006 -0.002 -0.001   -0.447 -0.128 -0.202
 TransDip   0.089 -0.071 -0.034    0.078 -0.002 -0.140    0.064 -0.076 -0.025

 Mode:                40                     41                     42
 Frequency:      3035.49                3040.95                3051.86
 Force Cnst:      5.9622                 5.9864                 6.0449
 Red. Mass:       1.0982                 1.0987                 1.1016
 IR Active:          YES                    YES                    YES
 IR Intens:       11.103                 39.135                 24.625
 Raman Active:       YES                    YES                    YES
               X      Y      Z        X      Y      Z        X      Y      Z
 C         -0.031 -0.024 -0.075   -0.014 -0.007 -0.026    0.078 -0.045 -0.017
 C          0.001  0.000 -0.008    0.002  0.000 -0.017    0.002  0.000 -0.004
 C          0.009 -0.008  0.030   -0.017  0.025 -0.078   -0.004 -0.002 -0.003
 C          0.000  0.000  0.000    0.000  0.000 -0.001    0.000  0.000 -0.001
 C          0.002  0.001 -0.001    0.001  0.000  0.000    0.005  0.005 -0.006
 O          0.000  0.000  0.000    0.000  0.000  0.000    0.000  0.000  0.000
 H          0.588  0.053  0.204    0.230  0.023  0.080   -0.516 -0.062 -0.204
 H         -0.028 -0.039  0.587   -0.011 -0.017  0.209    0.013 -0.017  0.130
 H         -0.198  0.265  0.106   -0.050  0.067  0.026   -0.429  0.618  0.283
 H         -0.014 -0.004  0.089   -0.030  0.001  0.186   -0.008 -0.001  0.046
 H          0.039 -0.001 -0.228   -0.107  0.009  0.613   -0.005  0.001  0.021
 H         -0.204 -0.031 -0.102    0.472  0.066  0.232    0.043  0.007  0.023
 H          0.058  0.122 -0.029   -0.169 -0.372  0.096    0.009  0.021 -0.008
 H          0.001  0.001  0.006    0.002  0.000  0.013    0.000  0.000  0.010
 H         -0.002  0.000  0.025   -0.001  0.001  0.003   -0.005  0.003  0.075
 H          0.000 -0.003  0.001    0.000 -0.001  0.000   -0.019 -0.058  0.022
 H         -0.020 -0.005 -0.009   -0.008 -0.002 -0.003   -0.037 -0.008 -0.019
 TransDip  -0.021 -0.067 -0.080   -0.062  0.020 -0.189    0.128 -0.080 -0.050

 Mode:                43                     44                     45
 Frequency:      3057.70                3082.65                3089.78
 Force Cnst:      6.0735                 6.1768                 6.2043
 Red. Mass:       1.1026                 1.1032                 1.1030
 IR Active:          YES                    YES                    YES
 IR Intens:       17.518                 10.717                  7.873
 Raman Active:       YES                    YES                    YES
               X      Y      Z        X      Y      Z        X      Y      Z
 C         -0.005  0.002 -0.002   -0.006  0.005  0.002    0.004 -0.003 -0.002
 C         -0.001 -0.001  0.000    0.000  0.000  0.000    0.001  0.000  0.000
 C         -0.071 -0.060 -0.003    0.000  0.000  0.000   -0.001  0.000  0.000
 C          0.000  0.000  0.000    0.001  0.000 -0.006   -0.001  0.000 -0.001
 C          0.001  0.000  0.000   -0.002  0.037 -0.085   -0.070 -0.056 -0.024
 O          0.000  0.000  0.000    0.000  0.000  0.000    0.000  0.000  0.000
 H          0.048  0.008  0.018    0.030  0.003  0.012   -0.018 -0.002 -0.007
 H         -0.002  0.000  0.013   -0.002  0.002 -0.014    0.000 -0.002  0.017
 H          0.015 -0.020 -0.009    0.044 -0.061 -0.028   -0.029  0.042  0.018
 H          0.001  0.000 -0.003    0.002  0.000  0.007    0.000  0.000  0.004
 H         -0.005 -0.013 -0.065   -0.001  0.000  0.001   -0.001  0.000  0.001
 H          0.565  0.064  0.305   -0.001  0.000  0.000    0.006  0.001  0.003
 H          0.285  0.666 -0.205    0.000  0.000  0.000    0.002  0.004 -0.001
 H          0.001  0.000 -0.001   -0.005  0.001  0.050    0.000  0.000  0.007
 H          0.000  0.000  0.001   -0.051  0.026  0.730   -0.025 -0.007  0.160
 H          0.000  0.002 -0.001   -0.180 -0.550  0.198    0.145  0.484 -0.197
 H         -0.008 -0.002 -0.003    0.240  0.074  0.089    0.726  0.191  0.322
 TransDip  -0.117 -0.065 -0.014   -0.015  0.025 -0.101   -0.081 -0.027 -0.027

 STANDARD THERMODYNAMIC QUANTITIES AT   298.15 K  AND     1.00 ATM

   This Molecule has  0 Imaginary Frequencies
   Zero point vibrational energy:       93.327 kcal/mol

   Atom    1 Element C  Has Mass   12.00000
   Atom    2 Element C  Has Mass   12.00000
   Atom    3 Element C  Has Mass   12.00000
   Atom    4 Element C  Has Mass   12.00000
   Atom    5 Element C  Has Mass   12.00000
   Atom    6 Element O  Has Mass   15.99491
   Atom    7 Element H  Has Mass    1.00783
   Atom    8 Element H  Has Mass    1.00783
   Atom    9 Element H  Has Mass    1.00783
   Atom   10 Element H  Has Mass    1.00783
   Atom   11 Element H  Has Mass    1.00783
   Atom   12 Element H  Has Mass    1.00783
   Atom   13 Element H  Has Mass    1.00783
   Atom   14 Element H  Has Mass    1.00783
   Atom   15 Element H  Has Mass    1.00783
   Atom   16 Element H  Has Mass    1.00783
   Atom   17 Element H  Has Mass    1.00783
   Molecular Mass:    87.081040 amu
   Principal axes and moments of inertia in amu*Bohr^2:
                             1           2           3
    Eigenvalues --      391.33556   601.43892   908.95044
          X               0.99535    -0.09633    -0.00291
          Y               0.09633     0.99535     0.00190
          Z               0.00271    -0.00217     0.99999
   Rotational Symmetry Number is   1
   The Molecule is an Asymmetric Top
   Translational Enthalpy:        0.889 kcal/mol
   Rotational Enthalpy:           0.889 kcal/mol
   Vibrational Enthalpy:         96.507 kcal/mol
   gas constant (RT):             0.592 kcal/mol
   Translational Entropy:        39.306  cal/mol.K
   Rotational Entropy:           26.861  cal/mol.K
   Vibrational Entropy:          18.375  cal/mol.K

   Total Enthalpy:               98.877 kcal/mol
   Total Entropy:                84.542  cal/mol.K
Archival summary:
1\1\node24\FREQ\ProcedureUnspecified\BasisUnspecified\1511(2)\edames\TueJul1512:51:272014TueJul1512:51:272014\0\\#,FREQ,ProcedureUnspecified,BasisUnspecified,\\0,2\C\H,1,1.11073\O,1,1.37105,2,110.419\C,1,1.53881,2,109.89,3,124.47,0\H,4,1.10172,1,106.827,2,177.198,0\C,4,1.53114,1,111.227,2,57.3685,0\H,6,1.09683,4,112.45,1,66.8917,0\H,6,1.0974,4,110.481,1,-172.703,0\H,6,1.10064,4,110.37,1,-53.9835,0\C,4,1.53205,1,109.061,2,-65.0484,0\H,10,1.09704,4,110.922,1,-56.2434,0\H,10,1.09715,4,111.042,1,-177.013,0\H,10,1.10035,4,110.223,1,63.5387,0\C,1,1.5519,2,107.566,3,-112.709,0\H,14,1.09408,1,110.405,2,63.4936,0\H,14,1.09541,1,108.665,2,-56.1418,0\H,14,1.09586,1,109.67,2,-175.954,0\\\@

 Total job time:  73927.82s(wall), 73407.50s(cpu) 
 Tue Jul 15 12:51:27 2014

        *************************************************************
        *                                                           *
        *  Thank you very much for using Q-Chem.  Have a nice day.  *
        *                                                           *
        *************************************************************


0 sent ACK to 0 
now end server 0 ... 
cleanup process ... done
remove work dirs /scratch/edames/qchem4135.0 -- /scratch/edames/qchem4135.7
rm -rf /scratch/edames/qchem4135.0
rm -rf /scratch/edames/qchem4135.1
rm -rf /scratch/edames/qchem4135.2
rm -rf /scratch/edames/qchem4135.3
rm -rf /scratch/edames/qchem4135.4
rm -rf /scratch/edames/qchem4135.5
rm -rf /scratch/edames/qchem4135.6
rm -rf /scratch/edames/qchem4135.7
rm -rf /scratch/edames/qchem4135
