
Running Job 1 of 2 dimetpropoxy_betasci.in
qchem dimetpropoxy_betasci.in_27044.0 /scratch/edames/qchem27044/ 8
/opt/qchem/bin/mpi/mpirun_qchem -machinefile /tmp/321154.1.normal1/hostfile -np 8 /opt/qchem/exe/qcprog.exe dimetpropoxy_betasci.in_27044.0 /scratch/edames/qchem27044/

Process 0 of 8 is on node11.cluster - thread support 0
Process 3 of 8 is on node11.cluster - thread support 0
Process 1 of 8 is on node11.cluster - thread support 0
Process 5 of 8 is on node11.cluster - thread support 0
Process 6 of 8 is on node11.cluster - thread support 0
Process 2 of 8 is on node11.cluster - thread support 0
Process 4 of 8 is on node11.cluster - thread support 0
Process 7 of 8 is on node11.cluster - thread support 0
initial socket setup ...start
initial socket setup ...done 
now start server 0 ... 
set process cleaner
set process cleaner
set process cleaner
set process cleaner
set process cleaner
set process cleaner
set process cleaner
                  Welcome to Q-Chem
     A Quantum Leap Into The Future Of Chemistry


 Q-Chem 4.2, Q-Chem, Inc., Pleasanton, CA (2014).

 Y. Shao,  Z. Gan,  E. Epifanovsky,  A. T. B. Gilbert,  M. Wormit,  
 J. Kussmann,  A. W. Lange,  A. Behn,  J. Deng,  X. Feng,  D. Ghosh,  
 M. Goldey,  P. R. Horn,  L. D. Jacobson,  I. Kaliman,  R. Z. Khaliullin,  
 T. Kus,  A. Landau,  J. Liu,  E. I. Proynov,  Y. M. Rhee,  R. M. Richard,  
 M. A. Rohrdanz,  R. P. Steele,  E. J. Sundstrom,  H. L. Woodcock III,  
 P. M. Zimmerman,  D. Zuev,  B. Albrecht,  E. Alguire,  B. Austin,  
 G. J. O. Beran,  Y. A. Bernard,  E. Berquist,  K. Brandhorst,  
 K. B. Bravaya,  S. T. Brown,  D. Casanova,  C.-M. Chang,  Y. Chen,  
 S. H. Chien,  K. D. Closser,  D. L. Crittenden,  M. Diedenhofen,  
 R. A. DiStasio Jr.,  H. Do,  A. D. Dutoi,  R. G. Edgar,  S. Fatehi,  
 L. Fusti-Molnar,  A. Ghysels,  A. Golubeva-Zadorozhnaya,  J. Gomes,  
 M. W. D. Hanson-Heine,  P. H. P. Harbach,  A. W. Hauser,  E. G. Hohenstein,  
 Z. C. Holden,  T.-C. Jagau,  H. Ji,  B. Kaduk,  K. Khistyaev,  Jaehoon Kim,  
 Jihan Kim,  R. A. King,  P. Klunzinger,  D. Kosenkov,  T. Kowalczyk,  
 C. M. Krauter,  K. U. Lao,  A. Laurent,  K. V. Lawler,  S. V. Levchenko,  
 C. Y. Lin,  F. Liu,  E. Livshits,  R. C. Lochan,  A. Luenser,  P. Manohar,  
 S. F. Manzer,  S.-P. Mao,  N. Mardirossian,  A. V. Marenich,  S. A. Maurer,  
 N. J. Mayhall,  C. M. Oana,  R. Olivares-Amaya,  D. P. O'Neill,  
 J. A. Parkhill,  T. M. Perrine,  R. Peverati,  P. A. Pieniazek,  A. Prociuk,  
 D. R. Rehn,  E. Rosta,  N. J. Russ,  N. Sergueev,  S. M. Sharada,  
 S. Sharma,  D. W. Small,  A. Sodt,  T. Stein,  D. Stuck,  Y.-C. Su,  
 A. J. W. Thom,  T. Tsuchimochi,  L. Vogt,  O. Vydrov,  T. Wang,  
 M. A. Watson,  J. Wenzel,  A. White,  C. F. Williams,  V. Vanovschi,  
 S. Yeganeh,  S. R. Yost,  Z.-Q. You,  I. Y. Zhang,  X. Zhang,  Y. Zhao,  
 B. R. Brooks,  G. K. L. Chan,  D. M. Chipman,  C. J. Cramer,  
 W. A. Goddard III,  M. S. Gordon,  W. J. Hehre,  A. Klamt,  
 H. F. Schaefer III,  M. W. Schmidt,  C. D. Sherrill,  D. G. Truhlar,  
 A. Warshel,  X. Xu,  A. Aspuru-Guzik,  R. Baer,  A. T. Bell,  N. A. Besley,  
 J.-D. Chai,  A. Dreuw,  B. D. Dunietz,  T. R. Furlani,  S. R. Gwaltney,  
 C.-P. Hsu,  Y. Jung,  J. Kong,  D. S. Lambrecht,  W. Liang,  C. Ochsenfeld,  
 V. A. Rassolov,  L. V. Slipchenko,  J. E. Subotnik,  T. Van Voorhis,  
 J. M. Herbert,  A. I. Krylov,  P. M. W. Gill,  M. Head-Gordon

 Contributors to earlier versions of Q-Chem not listed above: 
 R. D. Adamson,  J. Baker,  E. F. C. Byrd,  A. K. Chakraborty,  C.-L. Cheng,  
 H. Dachsel,  R. J. Doerksen,  G. Hawkins,  A. Heyden,  S. Hirata,  
 G. Kedziora,  F. J. Keil,  C. Kelley,  P. P. Korambath,  W. Kurlancheek,  
 A. M. Lee,  M. S. Lee,  D. Liotard,  I. Lotan,  P. E. Maslen,  N. Nair,  
 D. Neuhauser,  R. Olson,  B. Peters,  J. Ritchie,  N. E. Schultz,  
 N. Shenvi,  A. C. Simmonett,  K. S. Thanthiriwatte,  Q. Wu,  W. Zhang

 Q-Chem 4.2.0 for Intel X86 Linux

 Parts of Q-Chem use Armadillo 4.100.2 (Dirt Cruiser).
 http://arma.sourceforge.net/

 Q-Chem begins on Thu Jul 17 10:24:12 2014  

Host: 
0

     Scratch files written to /scratch/edames/qchem27044.0//
 May2514 8580_ilyak 4150   
 Parallel job on  8  processors
Processing $rem in /opt/qchem/config/preferences.
 MEM_TOTAL  2000 
Warning: disabling incdft.
 Q-Chem warning in module /home/scratch/svnadmin/8580_ilyak/qchem/forms1/BasisType.C, line 1209:

 Setting pure/cartesian flag to 2111 for general basis


Finally everything over in PARseQInput

--------------------------------------------------------------
User input:
--------------------------------------------------------------
$rem
XC_GRID 000075000434
JOBTYPE ts
EXCHANGE M08SO
SCF_ALGORITHM DIIS_GDM
BASIS gen
GUI=2
UNRESTRICTED TRUE
CORRELATION NONE
$end

$comment
c5h11o-2
$end

$molecule
0 2
C       -1.25740       -1.45929        0.09504
C       -0.81284       -0.10410       -0.38119
C       -1.60850        1.08480        0.07877
C        1.15469        0.31653        0.42688
C        1.97581       -0.88408       -0.01577
O        1.39079        1.44796       -0.05552
H       -2.28211       -1.65918       -0.25728
H       -1.28687       -1.51264        1.19095
H       -0.62437       -2.26909       -0.27815
H       -0.45857       -0.05469       -1.41074
H       -1.75153        1.07460        1.16670
H       -2.60999        1.07111       -0.37902
H       -1.11604        2.01997       -0.19784
H        0.72580        0.24450        1.44776
H        2.13928       -0.85837       -1.09705
H        1.50704       -1.82743        0.27094
H        2.95367       -0.82662        0.47863
$end

$basis
H  0
S  3 1.00
3.386500000000E+01 2.549380000000E-02
5.094790000000E+00 1.903730000000E-01
1.158790000000E+00 8.521610000000E-01
S  1 1.00
3.258400000000E-01 1.000000000000E+00
S  1 1.00
1.027410000000E-01 1.000000000000E+00
S  1 1.00
3.600000000000E-02 1.000000000000E+00
P  1 1.00
1.500000000000E+00 1.000000000000E+00
P  1 1.00
3.750000000000E-01 1.000000000000E+00
****
C 0
S  6 1.00
4.563240000000E+03 1.966650000000E-03
6.820240000000E+02 1.523060000000E-02
1.549730000000E+02 7.612690000000E-02
4.445530000000E+01 2.608010000000E-01
1.302900000000E+01 6.164620000000E-01
1.827730000000E+00 2.210060000000E-01
S  3 1.00
2.096420000000E+01 1.146600000000E-01
4.803310000000E+00 9.199990000000E-01
1.459330000000E+00 -3.030680000000E-03
S  1 1.00
4.834560000000E-01 1.000000000000E+00
S  1 1.00
1.455850000000E-01 1.000000000000E+00
S  1 1.00
4.380000000000E-02 1.000000000000E+00
P  3 1.00
2.096420000000E+01 4.024870000000E-02
4.803310000000E+00 2.375940000000E-01
1.459330000000E+00 8.158540000000E-01
P  1 1.00
4.834560000000E-01 1.000000000000E+00
P  1 1.00
1.455850000000E-01 1.000000000000E+00
P  1 1.00
4.380000000000E-02 1.000000000000E+00
D  1 1.00
1.252000000000E+00 1.000000000000E+00
D  1 1.00
3.130000000000E-01 1.000000000000E+00
F  1 1.00
8.000000000000E-01 1.000000000000E+00
****
O  0
S  6 1.00
8.588500000000E+03 1.895150000000E-03
1.297230000000E+03 1.438590000000E-02
2.992960000000E+02 7.073200000000E-02
8.737710000000E+01 2.400010000000E-01
2.567890000000E+01 5.947970000000E-01
3.740040000000E+00 2.808020000000E-01
S  3 1.00
4.211750000000E+01 1.138890000000E-01
9.628370000000E+00 9.208110000000E-01
2.853320000000E+00 -3.274470000000E-03
S  1 1.00
9.056610000000E-01 1.000000000000E+00
S  1 1.00
2.556110000000E-01 1.000000000000E+00
S  1 1.00
8.450000000000E-02 1.000000000000E+00
P  3 1.00
4.211750000000E+01 3.651140000000E-02
9.628370000000E+00 2.371530000000E-01
2.853320000000E+00 8.197020000000E-01
P  1 1.00
9.056610000000E-01 1.000000000000E+00
P  1 1.00
2.556110000000E-01 1.000000000000E+00
P  1 1.00
8.450000000000E-02 1.000000000000E+00
D  1 1.00
2.584000000000E+00 1.000000000000E+00
D  1 1.00
6.460000000000E-01 1.000000000000E+00
F  1 1.00
1.400000000000E+00 1.000000000000E+00
****
$end

--------------------------------------------------------------
 ----------------------------------------------------------------
             Standard Nuclear Orientation (Angstroms)
    I     Atom           X                Y                Z
 ----------------------------------------------------------------
    1      C      -1.4261068951    -1.4081232664     0.0943692303
    2      C      -0.9280405342    -0.0774517388    -0.3977808774
    3      C      -1.6581229433     1.1495214308     0.0708743946
    4      C       1.0723857964     0.2542367930     0.3699158311
    5      C       1.8276855187    -0.9855467983    -0.0818589192
    6      O       1.3516774801     1.3711351537    -0.1231572084
    7      H      -2.4657167232    -1.5613982176    -0.2370431614
    8      H      -1.4366654153    -1.4550012388     1.1909203713
    9      H      -0.8390287974    -2.2483985793    -0.2864857325
   10      H      -0.5919893714    -0.0494226824    -1.4342198633
   11      H      -1.7802337489     1.1510296471     1.1613971969
   12      H      -2.6678931507     1.1806678007    -0.3674580730
   13      H      -1.1279641695     2.0593109862    -0.2203085581
   14      H       0.6605837834     0.2070692092     1.3992482597
   15      H       1.9710649209    -0.9724893608    -1.1662120599
   16      H       1.3210007972    -1.9045708652     0.2190106823
   17      H       2.8166163791    -0.9716964506     0.3932906492
 ----------------------------------------------------------------
 Molecular Point Group                 C1    NOp =  1
 Largest Abelian Subgroup              C1    NOp =  1
 Nuclear Repulsion Energy =   243.4763751499 hartrees
 There are       25 alpha and       24 beta electrons
 Requested basis set is non-standard
 There are 138 shells and 314 basis functions

Total QAlloc Memory Limit   2000 MB
Mega-Array Size        61 MB
MEM_STATIC part        62 MB
 A cutoff of  1.0D-12 yielded   9114 shell pairs
 There are     47220 function pairs (     56815 Cartesian)
 Smallest overlap matrix eigenvalue = 2.48E-05

  Scale SEOQF with 1.000000e-01/1.000000e-01/1.000000e-01

 Standard Electronic Orientation quadrupole field applied
 Nucleus-field energy     =     0.0000000073 hartrees
 Guess MOs from core Hamiltonian diagonalization
 An unrestricted hybrid HF-DFT SCF calculation will be
 performed using Pulay DIIS + Geometric Direct Minimization
 Exchange:     0.5679 Hartree-Fock + 1.0000 M08SO
 SCF converges when RMS gradient is below 1.0E-08
 ---------------------------------------
  Cycle       Energy         DIIS Error
 ---------------------------------------
    1    -195.7811791348      9.01E-02
    2    -175.5861248288      5.05E-02
    3    -219.8784566835      5.32E-02
    4    -255.2510882753      2.67E-02
    5    -261.8806473339      2.31E-02
    6    -269.9093083602      1.06E-02
    7    -271.3833482099      8.46E-03 Done DIIS. Switching to GDM
    8    -272.0636686754      2.51E-01 Descent step
    9    -272.1583572408      7.08E-02 Normal BFGS step
   10    -272.1737849112      5.47E-02 Normal BFGS step
   11    -272.1824447855      2.11E-02 Normal BFGS step
   12    -272.1842901769      3.91E-03 Normal BFGS step
   13    -272.1845378979      2.73E-03 Normal BFGS step
   14    -272.1846130866      7.75E-04 Normal BFGS step
   15    -272.1846180970      5.41E-04 Normal BFGS step
   16    -272.1846193726      3.78E-04 Normal BFGS step
   17    -272.1846197236      2.16E-04 Normal BFGS step
   18    -272.1846198712      6.57E-05 Normal BFGS step
   19    -272.1846199122      1.97E-05 Normal BFGS step
   20    -272.1846199181      7.01E-06 Normal BFGS step
   21    -272.1846199189      4.79E-06 Normal BFGS step
   22    -272.1846199192      2.53E-06 Normal BFGS step
   23    -272.1846199192      1.40E-06 Normal BFGS step
   GDM::WARNING energy changes are now smaller than effective accuracy.
   GDM::        calculation will continue, but THRESH should be increased
   GDM::        or SCF_CONVERGENCE decreased.
   GDM::        effective_thresh =   1.068372305207399E-008
   24    -272.1846199192      5.98E-07 Normal BFGS step
   GDM::WARNING energy changes are now smaller than effective accuracy.
   GDM::        calculation will continue, but THRESH should be increased
   GDM::        or SCF_CONVERGENCE decreased.
   GDM::        effective_thresh =   1.068372305207399E-008
   25    -272.1846199191      1.83E-07 Normal BFGS step
   GDM::WARNING energy changes are now smaller than effective accuracy.
   GDM::        calculation will continue, but THRESH should be increased
   GDM::        or SCF_CONVERGENCE decreased.
   GDM::        effective_thresh =   1.068372305207399E-008
   26    -272.1846199191      1.87E-07 Normal BFGS step
   27    -272.1846199192      3.31E-08 Normal BFGS step
   GDM::WARNING energy changes are now smaller than effective accuracy.
   GDM::        calculation will continue, but THRESH should be increased
   GDM::        or SCF_CONVERGENCE decreased.
   GDM::        effective_thresh =   1.068372305207399E-008
   28    -272.1846199191      2.04E-08 Normal BFGS step
   29    -272.1846199192      6.14E-09 Convergence criterion met
 ---------------------------------------
 <S^2> = 0.7691
 SCF time:  CPU 3449.02 s  wall 3458.57 s
 SCF   energy in the final basis set = -272.1846199192
 Total energy in the final basis set = -272.1846199192
 Analysis of SCF Wavefunction
 
 --------------------------------------------------------------
                    Orbital Energies (a.u.)
 --------------------------------------------------------------
 
 Alpha MOs
 -- Occupied --
-19.544 -10.578 -10.544 -10.508 -10.495 -10.495  -1.130  -0.905
 -0.835  -0.798  -0.684  -0.658  -0.552  -0.549  -0.535  -0.506
 -0.494  -0.487  -0.474  -0.458  -0.436  -0.430  -0.426  -0.327
 -0.277
 -- Virtual --
 -0.028  -0.013  -0.011  -0.004   0.013   0.014   0.019   0.024
  0.030   0.034   0.050   0.053   0.065   0.066   0.077   0.083
  0.092   0.101   0.112   0.119   0.122   0.125   0.127   0.132
  0.134   0.141   0.148   0.154   0.161   0.165   0.172   0.183
  0.191   0.206   0.216   0.219   0.222   0.244   0.248   0.270
  0.287   0.290   0.299   0.304   0.312   0.326   0.334   0.336
  0.355   0.373   0.398   0.415   0.437   0.458   0.459   0.470
  0.497   0.515   0.519   0.533   0.538   0.551   0.558   0.564
  0.571   0.578   0.580   0.587   0.610   0.616   0.620   0.626
  0.641   0.649   0.670   0.681   0.689   0.692   0.705   0.720
  0.750   0.766   0.776   0.793   0.828   0.835   0.867   0.881
  0.902   0.908   0.931   0.957   1.001   1.022   1.031   1.054
  1.061   1.073   1.074   1.089   1.100   1.120   1.131   1.145
  1.149   1.173   1.179   1.187   1.210   1.215   1.232   1.269
  1.271   1.276   1.301   1.308   1.313   1.320   1.335   1.344
  1.352   1.367   1.378   1.405   1.414   1.435   1.444   1.463
  1.469   1.475   1.502   1.521   1.526   1.533   1.550   1.563
  1.576   1.602   1.603   1.615   1.664   1.681   1.703   1.808
  1.833   1.921   2.120   2.254   2.347   2.408   2.424   2.474
  2.485   2.513   2.544   2.564   2.570   2.577   2.668   2.671
  2.687   2.704   2.777   2.785   2.797   2.838   2.859   2.888
  2.899   2.910   2.934   2.939   2.971   2.983   3.002   3.025
  3.052   3.075   3.108   3.114   3.143   3.161   3.169   3.187
  3.211   3.222   3.239   3.254   3.274   3.285   3.320   3.331
  3.351   3.366   3.376   3.406   3.421   3.437   3.459   3.475
  3.490   3.539   3.543   3.561   3.571   3.590   3.607   3.618
  3.676   3.690   3.715   3.731   3.743   3.776   3.818   3.841
  3.871   3.876   3.893   3.916   3.928   3.955   3.971   3.985
  4.014   4.020   4.040   4.063   4.115   4.120   4.141   4.149
  4.166   4.180   4.190   4.224   4.246   4.253   4.282   4.289
  4.334   4.357   4.368   4.394   4.418   4.429   4.447   4.475
  4.491   4.530   4.538   4.556   4.586   4.608   4.656   4.760
  4.798   5.018   5.054   5.102   5.154   5.224   5.281   5.354
  5.377   5.405   5.455   5.506   5.565   5.593   5.607   5.620
  5.640   5.645   5.680   6.134   6.350   6.858   6.889   6.963
  7.268   7.385   7.616  23.965  24.145  24.161  24.262  24.418
 49.919
 
 Beta MOs
 -- Occupied --
-19.535 -10.580 -10.531 -10.508 -10.496 -10.494  -1.113  -0.897
 -0.832  -0.796  -0.670  -0.650  -0.546  -0.543  -0.518  -0.499
 -0.489  -0.481  -0.468  -0.454  -0.435  -0.430  -0.391  -0.319
 -- Virtual --
 -0.066  -0.032  -0.016  -0.015  -0.007   0.010   0.013   0.018
  0.022   0.028   0.040   0.047   0.057   0.064   0.067   0.076
  0.083   0.099   0.107   0.112   0.118   0.121   0.124   0.125
  0.130   0.133   0.140   0.147   0.153   0.159   0.163   0.172
  0.184   0.193   0.209   0.217   0.220   0.224   0.246   0.252
  0.272   0.290   0.295   0.303   0.310   0.320   0.330   0.335
  0.340   0.355   0.373   0.400   0.418   0.439   0.457   0.461
  0.471   0.514   0.517   0.521   0.536   0.544   0.553   0.560
  0.567   0.571   0.579   0.581   0.591   0.613   0.625   0.633
  0.637   0.648   0.651   0.672   0.682   0.692   0.696   0.707
  0.724   0.750   0.767   0.777   0.800   0.832   0.843   0.870
  0.882   0.903   0.911   0.935   0.961   1.005   1.025   1.036
  1.057   1.066   1.076   1.078   1.095   1.103   1.126   1.135
  1.150   1.153   1.179   1.189   1.195   1.219   1.222   1.243
  1.274   1.281   1.288   1.306   1.314   1.323   1.335   1.346
  1.355   1.361   1.375   1.387   1.409   1.420   1.441   1.447
  1.465   1.475   1.480   1.506   1.528   1.535   1.543   1.556
  1.569   1.585   1.606   1.614   1.626   1.676   1.695   1.713
  1.821   1.845   1.925   2.132   2.253   2.355   2.414   2.433
  2.485   2.490   2.522   2.549   2.569   2.576   2.606   2.677
  2.688   2.749   2.773   2.804   2.818   2.841   2.870   2.880
  2.901   2.912   2.928   2.942   2.955   2.977   3.003   3.005
  3.046   3.064   3.078   3.118   3.126   3.150   3.165   3.183
  3.195   3.225   3.247   3.256   3.262   3.276   3.292   3.331
  3.337   3.366   3.369   3.376   3.419   3.435   3.455   3.470
  3.482   3.496   3.539   3.547   3.575   3.585   3.614   3.628
  3.664   3.683   3.712   3.730   3.758   3.784   3.795   3.839
  3.844   3.870   3.878   3.904   3.919   3.930   3.957   3.980
  3.990   4.020   4.033   4.045   4.092   4.121   4.130   4.146
  4.164   4.182   4.192   4.205   4.234   4.256   4.287   4.306
  4.313   4.346   4.363   4.376   4.403   4.430   4.437   4.465
  4.492   4.502   4.568   4.580   4.593   4.609   4.654   4.707
  4.851   4.876   5.023   5.084   5.118   5.196   5.254   5.291
  5.360   5.423   5.493   5.512   5.528   5.569   5.590   5.607
  5.627   5.639   5.651   5.676   6.132   6.327   6.876   6.906
  6.962   7.283   7.377   7.604  23.973  24.145  24.165  24.279
 24.415  49.916
 --------------------------------------------------------------
 
          Ground-State Mulliken Net Atomic Charges

     Atom                 Charge (a.u.)    Spin (a.u.)
  --------------------------------------------------------
      1 C                    -0.666600      -0.030365
      2 C                    -0.124523       0.710806
      3 C                    -0.612929      -0.026673
      4 C                    -0.062406      -0.077778
      5 C                    -0.590443       0.002908
      6 O                    -0.304674       0.315032
      7 H                     0.208370       0.045775
      8 H                     0.227537       0.012031
      9 H                     0.194526       0.004170
     10 H                     0.279515      -0.036457
     11 H                     0.197899       0.008080
     12 H                     0.195853       0.033474
     13 H                     0.223936       0.005082
     14 H                     0.233836       0.023567
     15 H                     0.218391       0.004602
     16 H                     0.180720       0.000260
     17 H                     0.200992       0.005484
  --------------------------------------------------------
  Sum of atomic charges =     0.000000
  Sum of spin   charges =     1.000000

 -----------------------------------------------------------------
                    Cartesian Multipole Moments
 -----------------------------------------------------------------
    Charge (ESU x 10^10)
                 0.0000
    Dipole Moment (Debye)
         X      -2.0767      Y      -2.8707      Z       0.4923
       Tot       3.5771
    Quadrupole Moments (Debye-Ang)
        XX     -39.6797     XY      -4.4479     YY     -43.6156
        XZ       1.3192     YZ       0.6755     ZZ     -38.9512
    Octopole Moments (Debye-Ang^2)
       XXX       1.2519    XXY      -5.7103    XYY      -6.3094
       YYY      -2.7419    XXZ       1.0939    XYZ       1.2201
       YYZ      -0.1740    XZZ       1.4146    YZZ       1.1101
       ZZZ      -0.2424
    Hexadecapole Moments (Debye-Ang^3)
      XXXX    -566.7505   XXXY      -4.7212   XXYY    -165.6554
      XYYY      -3.8411   YYYY    -356.4093   XXXZ      10.8809
      XXYZ       1.5813   XYYZ       1.4752   YYYZ      -0.9290
      XXZZ    -112.5728   XYZZ       0.5740   YYZZ     -75.5291
      XZZZ      -3.2288   YZZZ       0.9338   ZZZZ     -89.4561
 -----------------------------------------------------------------
 Calculating analytic gradient of the SCF energy
 Gradient of Coulomb and Exchange Energy
            1           2           3           4           5           6
    1   2.8723217   3.6082117   2.9938996  -1.7112251  -3.7071382  -6.4341959
    2   2.4932948   0.7554011  -1.7813937   5.6578173   2.3254245 -13.9798095
    3   0.0113661   1.2678035  -0.8601541  -4.1986263   0.5200017   4.6649910
            7           8           9          10          11          12
    1   3.7452154   0.4101608  -1.5988453  -1.2649029   1.0316419   3.7138039
    2   1.1208455   0.9749205   3.4619907  -0.1894660  -0.7521902  -0.7426961
    3   0.8763401  -3.7119558   1.0441971   4.8516502  -3.6897203   1.2289562
           13          14          15          16          17
    1  -1.1262604   1.2912480  -0.9858452   1.0406180  -3.8787081
    2  -3.7942584  -0.2709012   0.6925410   3.5972402   0.4312397
    3   0.8882179  -4.4696731   3.9304045  -0.7880791  -1.5657197
 Gradient of SCF Energy
            1           2           3           4           5           6
    1  -0.0034222   0.0077195  -0.0036513  -0.0183998   0.0053589   0.0105334
    2  -0.0019016   0.0005845   0.0016378  -0.0222945  -0.0003942   0.0212396
    3  -0.0010658   0.0017583  -0.0004543   0.0072049   0.0013941  -0.0087044
            7           8           9          10          11          12
    1   0.0009155  -0.0003288  -0.0010143  -0.0023661  -0.0001635   0.0005597
    2  -0.0006980  -0.0005202   0.0007001  -0.0000138   0.0006729   0.0007052
    3   0.0005466  -0.0013772   0.0007021   0.0008735  -0.0012734   0.0006982
           13          14          15          16          17
    1  -0.0012706   0.0049096   0.0001652   0.0008694  -0.0004148
    2  -0.0010917   0.0002515  -0.0006381   0.0026385  -0.0008780
    3   0.0004082  -0.0002586   0.0010913  -0.0008226  -0.0007209
 Max gradient component =       2.229E-02
 RMS gradient           =       5.784E-03
 Gradient time:  CPU 127.81 s  wall 127.72 s
 Geometry Optimization Parameters
   NAtoms,    NIC,     NZ,  NCons,   NDum,   NFix, NCnnct, MaxDiis
       17     126       0       0       0       0       0       0


** GEOMETRY OPTIMIZATION IN DELOCALIZED INTERNAL COORDINATES **
   Searching for a Transition State

   Optimization Cycle:   1

                       Coordinates (Angstroms)
     ATOM                X               Y               Z
      1  C        -1.4261068951   -1.4081232664    0.0943692303
      2  C        -0.9280405342   -0.0774517388   -0.3977808774
      3  C        -1.6581229433    1.1495214308    0.0708743946
      4  C         1.0723857964    0.2542367930    0.3699158311
      5  C         1.8276855187   -0.9855467983   -0.0818589192
      6  O         1.3516774801    1.3711351537   -0.1231572084
      7  H        -2.4657167232   -1.5613982176   -0.2370431614
      8  H        -1.4366654153   -1.4550012388    1.1909203713
      9  H        -0.8390287974   -2.2483985793   -0.2864857325
     10  H        -0.5919893714   -0.0494226824   -1.4342198633
     11  H        -1.7802337489    1.1510296471    1.1613971969
     12  H        -2.6678931507    1.1806678007   -0.3674580730
     13  H        -1.1279641695    2.0593109862   -0.2203085581
     14  H         0.6605837834    0.2070692092    1.3992482597
     15  H         1.9710649209   -0.9724893608   -1.1662120599
     16  H         1.3210007972   -1.9045708652    0.2190106823
     17  H         2.8166163791   -0.9716964506    0.3932906492
   Point Group: c1    Number of degrees of freedom:    45


   Energy is   -272.184619919


 Attempting to Generate Delocalized Internal Coordinates
 GETINT wrote B to file, NVib is           45
 calling HSSCONV
 HCONV 3*NATOMS:           51
 wrote HINT to file
  writing hessian 

 45 Hessian modes will be used to form the next step
  Hessian Eigenvalues:
     0.003639    0.008145    0.008821    0.010630    0.026688    0.029899
     0.036667    0.038915    0.044141    0.052154    0.054808    0.057993
     0.059147    0.059682    0.062347    0.063163    0.072244    0.080135
     0.094830    0.099567    0.111855    0.114685    0.125159    0.144335
     0.147382    0.154135    0.160000    0.160000    0.160000    0.182444
     0.296287    0.307350    0.320952    0.326367    0.334762    0.335448
     0.337530    0.338770    0.339485    0.339781    0.339888    0.343693
     0.345245    0.348221    0.823446
**WARNING** Hessian does not have the Desired Local Structure

 Transition State Search - Taking P-RFO Step
 Searching for Lamda that Maximizes Along the Lowest mode
 Value Taken    Lamda =   0.00377409
 Searching for Lamda that Minimizes Along All other modes
 Value Taken    Lamda =  -0.00255847
 Calculated Step too Large.  Step scaled by  0.056749
 Step Taken.  Stepsize is  0.300000

                             Maximum     Tolerance    Cnvgd?
         Gradient           0.013542      0.000300      NO
         Displacement       0.093302      0.001200      NO
         Energy change     *********      0.000001      NO


 New Cartesian Coordinates Obtained by Inverse Iteration

 Displacement from previous Coordinates is:  0.403310
 ----------------------------------------------------------------
             Standard Nuclear Orientation (Angstroms)
    I     Atom           X                Y                Z
 ----------------------------------------------------------------
    1      C      -1.4136848266    -1.4097528412     0.0656284204
    2      C      -0.9326585421    -0.0653575955    -0.4068962674
    3      C      -1.6654405416     1.1446312092     0.0991468730
    4      C       1.0817416615     0.2720383737     0.3377219845
    5      C       1.8180776658    -1.0003534713    -0.0524265006
    6      O       1.3753245723     1.3567854682    -0.2131589254
    7      H      -2.4527586812    -1.5715575151    -0.2636784985
    8      H      -1.4181596299    -1.4732596584     1.1615030227
    9      H      -0.8151473736    -2.2345610930    -0.3290864105
   10      H      -0.6120501455    -0.0115702111    -1.4473434011
   11      H      -1.7706699612     1.1212854496     1.1912890069
   12      H      -2.6820743757     1.1761613251    -0.3231732154
   13      H      -1.1472241193     2.0650892154    -0.1802986900
   14      H       0.6703511295     0.2853366584     1.3684167328
   15      H       1.9716175276    -1.0354897343    -1.1349897429
   16      H       1.2893937449    -1.8951890163     0.2799814419
   17      H       2.8026148222    -0.9853647407     0.4318663315
 ----------------------------------------------------------------
 Molecular Point Group                 C1    NOp =  1
 Largest Abelian Subgroup              C1    NOp =  1
 Nuclear Repulsion Energy =   243.3450286096 hartrees
 There are       25 alpha and       24 beta electrons
 Applying Cartesian multipole field
    Component          Value
    ---------          -----
     (2,0,0)        1.00000E-11
     (0,2,0)        2.00000E-11
     (0,0,2)       -3.00000E-11
 Nucleus-field energy     =     0.0000000073 hartrees
 Requested basis set is non-standard
 There are 138 shells and 314 basis functions
 A cutoff of  1.0D-12 yielded   9117 shell pairs
 There are     47219 function pairs (     56812 Cartesian)
 Smallest overlap matrix eigenvalue = 2.44E-05
 Guess MOs from SCF MO coefficient file
Reading MOs from coefficient file
Reading MOs from coefficient file
 An unrestricted hybrid HF-DFT SCF calculation will be
 performed using Pulay DIIS + Geometric Direct Minimization
 Exchange:     0.5679 Hartree-Fock + 1.0000 M08SO
 SCF converges when RMS gradient is below 1.0E-08
Geometry optimization detected.  Setting ReadMinima to 0
Setting SaveMinima to 0
 Inaccurate integrated density:
   Number of electrons =    49
   Numerical integral  =    48.987791467447
   Relative error      =    -0.0249153726 %
 ---------------------------------------
  Cycle       Energy        RMS Gradient
 ---------------------------------------
    1    -272.1780238567      8.71E-04 Done DIIS. Switching to GDM
    2    -272.1843346880      2.83E-03 Normal BFGS step
    3    -272.1844468955      4.05E-03 Normal BFGS step
    4    -272.1845051080      2.30E-03 Normal BFGS step
    5    -272.1845146588      5.95E-04 Normal BFGS step
    6    -272.1845180916      1.14E-04 Normal BFGS step
    7    -272.1845183769      1.02E-04 Normal BFGS step
    8    -272.1845184373      6.67E-05 Normal BFGS step
    9    -272.1845184551      2.06E-05 Normal BFGS step
   10    -272.1845184582      8.59E-06 Normal BFGS step
   11    -272.1845184590      5.77E-06 Normal BFGS step
   12    -272.1845184592      1.11E-06 Normal BFGS step
   13    -272.1845184592      6.10E-07 Normal BFGS step
   14    -272.1845184592      8.61E-08 Normal BFGS step
   GDM::WARNING energy changes are now smaller than effective accuracy.
   GDM::        calculation will continue, but THRESH should be increased
   GDM::        or SCF_CONVERGENCE decreased.
   GDM::        effective_thresh =   2.784077510198379E-009
   15    -272.1845184592      3.49E-08 Normal BFGS step
   GDM::WARNING energy changes are now smaller than effective accuracy.
   GDM::        calculation will continue, but THRESH should be increased
   GDM::        or SCF_CONVERGENCE decreased.
   GDM::        effective_thresh =   2.784077510198379E-009
   16    -272.1845184591      2.72E-08 Normal BFGS step
   GDM::WARNING energy changes are now smaller than effective accuracy.
   GDM::        calculation will continue, but THRESH should be increased
   GDM::        or SCF_CONVERGENCE decreased.
   GDM::        effective_thresh =   2.784077510198379E-009
   17    -272.1845184589      1.82E-08 Normal BFGS step
   18    -272.1845184593      1.11E-08 Normal BFGS step
   GDM::WARNING energy changes are now smaller than effective accuracy.
   GDM::        calculation will continue, but THRESH should be increased
   GDM::        or SCF_CONVERGENCE decreased.
   GDM::        effective_thresh =   2.784077510198379E-009
   19    -272.1845184589      3.95E-09 Convergence criterion met
 ---------------------------------------
 <S^2> = 0.7690
 SCF time:  CPU 2255.72 s  wall 2261.45 s
 SCF   energy in the final basis set = -272.1845184589
 Total energy in the final basis set = -272.1845184589
 Analysis of SCF Wavefunction
 
 --------------------------------------------------------------
                    Orbital Energies (a.u.)
 --------------------------------------------------------------
 
 Alpha MOs
 -- Occupied --
-19.544 -10.578 -10.544 -10.508 -10.496 -10.495  -1.130  -0.905
 -0.835  -0.798  -0.684  -0.658  -0.552  -0.549  -0.535  -0.506
 -0.494  -0.487  -0.475  -0.457  -0.437  -0.431  -0.425  -0.327
 -0.277
 -- Virtual --
 -0.028  -0.013  -0.011  -0.004   0.013   0.014   0.019   0.024
  0.031   0.034   0.050   0.053   0.065   0.066   0.076   0.084
  0.093   0.101   0.111   0.118   0.122   0.125   0.127   0.132
  0.135   0.141   0.148   0.152   0.161   0.165   0.171   0.183
  0.191   0.207   0.216   0.219   0.220   0.243   0.250   0.270
  0.288   0.289   0.298   0.305   0.312   0.325   0.334   0.335
  0.357   0.373   0.400   0.413   0.435   0.458   0.461   0.470
  0.496   0.514   0.520   0.533   0.537   0.550   0.558   0.563
  0.571   0.578   0.580   0.587   0.607   0.616   0.619   0.625
  0.640   0.648   0.670   0.681   0.690   0.696   0.705   0.723
  0.748   0.764   0.774   0.796   0.828   0.836   0.867   0.880
  0.895   0.908   0.927   0.958   0.999   1.025   1.037   1.054
  1.062   1.073   1.079   1.091   1.101   1.116   1.130   1.144
  1.153   1.171   1.177   1.187   1.214   1.216   1.232   1.265
  1.273   1.277   1.301   1.305   1.316   1.321   1.335   1.346
  1.353   1.367   1.378   1.403   1.412   1.434   1.445   1.462
  1.470   1.474   1.498   1.521   1.524   1.531   1.550   1.563
  1.579   1.601   1.605   1.616   1.666   1.682   1.700   1.807
  1.836   1.919   2.120   2.256   2.349   2.405   2.425   2.471
  2.485   2.515   2.541   2.563   2.573   2.582   2.668   2.671
  2.687   2.704   2.777   2.781   2.801   2.838   2.858   2.891
  2.898   2.911   2.936   2.939   2.969   2.982   3.000   3.027
  3.050   3.074   3.108   3.115   3.140   3.160   3.165   3.188
  3.207   3.219   3.239   3.258   3.274   3.286   3.319   3.326
  3.352   3.369   3.378   3.400   3.418   3.436   3.459   3.478
  3.489   3.539   3.544   3.562   3.567   3.589   3.607   3.622
  3.669   3.694   3.717   3.729   3.744   3.781   3.817   3.837
  3.869   3.876   3.891   3.918   3.925   3.956   3.970   3.987
  4.012   4.018   4.040   4.063   4.111   4.118   4.137   4.150
  4.168   4.180   4.188   4.223   4.244   4.247   4.283   4.290
  4.334   4.357   4.372   4.398   4.417   4.432   4.451   4.474
  4.498   4.531   4.537   4.555   4.589   4.609   4.655   4.761
  4.799   5.018   5.055   5.101   5.155   5.223   5.281   5.354
  5.377   5.405   5.454   5.505   5.563   5.593   5.607   5.619
  5.643   5.646   5.682   6.136   6.352   6.856   6.890   6.964
  7.268   7.384   7.616  23.965  24.147  24.161  24.262  24.420
 49.920
 
 Beta MOs
 -- Occupied --
-19.535 -10.580 -10.531 -10.508 -10.497 -10.494  -1.114  -0.897
 -0.832  -0.797  -0.670  -0.650  -0.546  -0.543  -0.519  -0.499
 -0.489  -0.481  -0.468  -0.453  -0.435  -0.431  -0.391  -0.319
 -- Virtual --
 -0.066  -0.032  -0.016  -0.015  -0.006   0.010   0.013   0.018
  0.022   0.028   0.040   0.047   0.058   0.063   0.067   0.075
  0.084   0.098   0.106   0.112   0.117   0.121   0.124   0.126
  0.130   0.133   0.140   0.147   0.151   0.159   0.163   0.172
  0.184   0.193   0.209   0.217   0.220   0.222   0.245   0.253
  0.272   0.289   0.296   0.302   0.312   0.320   0.330   0.335
  0.339   0.357   0.373   0.402   0.416   0.437   0.457   0.462
  0.471   0.512   0.518   0.522   0.536   0.543   0.553   0.560
  0.567   0.572   0.580   0.582   0.591   0.610   0.625   0.633
  0.637   0.647   0.650   0.671   0.684   0.693   0.699   0.707
  0.726   0.749   0.766   0.775   0.803   0.833   0.843   0.870
  0.881   0.897   0.911   0.932   0.962   1.003   1.027   1.043
  1.058   1.067   1.077   1.082   1.099   1.103   1.121   1.135
  1.149   1.158   1.178   1.187   1.193   1.220   1.226   1.242
  1.273   1.280   1.288   1.305   1.314   1.327   1.335   1.346
  1.355   1.363   1.375   1.386   1.406   1.419   1.441   1.449
  1.465   1.475   1.478   1.504   1.528   1.532   1.542   1.555
  1.567   1.589   1.607   1.615   1.628   1.679   1.695   1.710
  1.820   1.848   1.923   2.131   2.254   2.357   2.412   2.434
  2.482   2.490   2.524   2.548   2.568   2.580   2.608   2.676
  2.689   2.749   2.773   2.803   2.818   2.846   2.869   2.881
  2.903   2.910   2.932   2.940   2.957   2.974   3.000   3.005
  3.049   3.061   3.077   3.118   3.127   3.148   3.164   3.178
  3.198   3.219   3.246   3.253   3.267   3.275   3.294   3.326
  3.336   3.367   3.371   3.377   3.415   3.433   3.461   3.469
  3.482   3.494   3.542   3.545   3.574   3.585   3.615   3.629
  3.662   3.681   3.712   3.732   3.757   3.788   3.797   3.837
  3.841   3.867   3.878   3.904   3.922   3.923   3.957   3.982
  3.990   4.018   4.035   4.044   4.092   4.118   4.128   4.144
  4.165   4.184   4.192   4.202   4.232   4.253   4.277   4.309
  4.315   4.346   4.363   4.379   4.408   4.429   4.441   4.473
  4.491   4.506   4.568   4.581   4.593   4.610   4.650   4.708
  4.851   4.878   5.023   5.085   5.117   5.198   5.254   5.288
  5.359   5.423   5.492   5.512   5.526   5.567   5.590   5.606
  5.626   5.641   5.651   5.677   6.134   6.330   6.874   6.906
  6.963   7.282   7.376   7.604  23.974  24.146  24.165  24.279
 24.416  49.917
 --------------------------------------------------------------
 
          Ground-State Mulliken Net Atomic Charges

     Atom                 Charge (a.u.)    Spin (a.u.)
  --------------------------------------------------------
      1 C                    -0.693939      -0.031542
      2 C                    -0.106061       0.714341
      3 C                    -0.613438      -0.026210
      4 C                    -0.062133      -0.077058
      5 C                    -0.593695       0.001768
      6 O                    -0.304377       0.310735
      7 H                     0.208430       0.046106
      8 H                     0.233165       0.011808
      9 H                     0.197630       0.004545
     10 H                     0.284096      -0.036255
     11 H                     0.196525       0.008152
     12 H                     0.195323       0.034249
     13 H                     0.224856       0.005415
     14 H                     0.229332       0.023776
     15 H                     0.219952       0.004589
     16 H                     0.184537       0.000407
     17 H                     0.199797       0.005174
  --------------------------------------------------------
  Sum of atomic charges =     0.000000
  Sum of spin   charges =     1.000000

 -----------------------------------------------------------------
                    Cartesian Multipole Moments
 -----------------------------------------------------------------
    Charge (ESU x 10^10)
                 0.0000
    Dipole Moment (Debye)
         X      -2.1142      Y      -2.8189      Z       0.6477
       Tot       3.5827
    Quadrupole Moments (Debye-Ang)
        XX     -39.7880     XY      -4.4735     YY     -43.5059
        XZ       1.6120     YZ       0.9968     ZZ     -39.0635
    Octopole Moments (Debye-Ang^2)
       XXX       0.5726    XXY      -5.7966    XYY      -6.3185
       YYY      -2.3863    XXZ       1.9632    XYZ       1.6822
       YYZ       0.7290    XZZ       1.1530    YZZ       1.0136
       ZZZ       1.1945
    Hexadecapole Moments (Debye-Ang^3)
      XXXX    -567.7812   XXXY      -4.8178   XXYY    -165.7273
      XYYY      -3.3908   YYYY    -356.9018   XXXZ      12.8340
      XXYZ       2.5650   XYYZ       2.3537   YYYZ       0.7404
      XXZZ    -113.0568   XYZZ       0.4928   YYZZ     -75.3950
      XZZZ      -1.7282   YZZZ       2.0354   ZZZZ     -89.8757
 -----------------------------------------------------------------
 Calculating analytic gradient of the SCF energy
 Gradient of Coulomb and Exchange Energy
            1           2           3           4           5           6
    1   2.9679146   3.4916889   2.9823683  -1.6694471  -3.7066540  -6.5337268
    2   2.4793625   0.8555966  -1.8498545   5.5017273   2.3418056 -13.6961524
    3   0.0407495   1.1609214  -0.8878589  -4.4660482   0.3827367   5.4492837
            7           8           9          10          11          12
    1   3.7511072   0.3640857  -1.6685791  -1.1795707   0.9724925   3.7352541
    2   1.1522147   1.0292140   3.4058139  -0.3182988  -0.6695963  -0.7294103
    3   0.8887064  -3.6864136   1.0783180   4.8904056  -3.6956973   1.1554677
           13          14          15          16          17
    1  -1.0815926   1.2898548  -1.0031229   1.1480349  -3.8601081
    2  -3.8041624  -0.5519785   0.8832216   3.5404146   0.4300826
    3   0.7912048  -4.4625532   3.8961427  -0.9119558  -1.6234097
 Gradient of SCF Energy
            1           2           3           4           5           6
    1  -0.0036319   0.0084071  -0.0039120  -0.0195825   0.0056627   0.0110471
    2  -0.0024404   0.0011855   0.0014517  -0.0212548  -0.0008063   0.0200264
    3  -0.0012308   0.0018689  -0.0005225   0.0082244   0.0015175  -0.0097938
            7           8           9          10          11          12
    1   0.0008061  -0.0002989  -0.0008362  -0.0023574  -0.0000358   0.0004806
    2  -0.0007001  -0.0004938   0.0011317   0.0001523   0.0007108   0.0004908
    3   0.0005852  -0.0013883   0.0010508   0.0006935  -0.0011774   0.0006867
           13          14          15          16          17
    1  -0.0012049   0.0048721   0.0001853   0.0007262  -0.0003276
    2  -0.0012045   0.0004648  -0.0006427   0.0028499  -0.0009212
    3   0.0005146  -0.0001101   0.0010786  -0.0012531  -0.0007440
 Max gradient component =       2.125E-02
 RMS gradient           =       5.819E-03
 Gradient time:  CPU 127.63 s  wall 127.73 s
 Geometry Optimization Parameters
   NAtoms,    NIC,     NZ,  NCons,   NDum,   NFix, NCnnct, MaxDiis
       17     126       0       0       0       0       0       0

 Cartesian Hessian Update
 Hessian Updated using Powell/Murtagh-Sargent Update
  Mixing factors:     0.000053 Powell
                      0.999947 Murtagh-Sargent


** GEOMETRY OPTIMIZATION IN DELOCALIZED INTERNAL COORDINATES **
   Searching for a Transition State

   Optimization Cycle:   2

                       Coordinates (Angstroms)
     ATOM                X               Y               Z
      1  C        -1.4136848266   -1.4097528412    0.0656284204
      2  C        -0.9326585421   -0.0653575955   -0.4068962674
      3  C        -1.6654405416    1.1446312092    0.0991468730
      4  C         1.0817416615    0.2720383737    0.3377219845
      5  C         1.8180776658   -1.0003534713   -0.0524265006
      6  O         1.3753245723    1.3567854682   -0.2131589254
      7  H        -2.4527586812   -1.5715575151   -0.2636784985
      8  H        -1.4181596299   -1.4732596584    1.1615030227
      9  H        -0.8151473736   -2.2345610930   -0.3290864105
     10  H        -0.6120501455   -0.0115702111   -1.4473434011
     11  H        -1.7706699612    1.1212854496    1.1912890069
     12  H        -2.6820743757    1.1761613251   -0.3231732154
     13  H        -1.1472241193    2.0650892154   -0.1802986900
     14  H         0.6703511295    0.2853366584    1.3684167328
     15  H         1.9716175276   -1.0354897343   -1.1349897429
     16  H         1.2893937449   -1.8951890163    0.2799814419
     17  H         2.8026148222   -0.9853647407    0.4318663315
   Point Group: c1    Number of degrees of freedom:    45


   Energy is   -272.184518459

 GETINT wrote B to file, NVib is           45
 Hessian Updated using Powell/Murtagh-Sargent Update
  Mixing factors:     0.816882 Powell
                      0.183118 Murtagh-Sargent

 44 Hessian modes will be used to form the next step
  Hessian Eigenvalues:
     0.000535    0.008149    0.008826    0.010629    0.026689    0.029899
     0.036662    0.038856    0.043993    0.052153    0.054792    0.057986
     0.059147    0.059679    0.062342    0.063147    0.072235    0.080133
     0.094805    0.099463    0.111854    0.114684    0.125141    0.144253
     0.146953    0.154039    0.159977    0.160000    0.182314    0.296180
     0.307095    0.320947    0.326366    0.334761    0.335447    0.337496
     0.338683    0.339481    0.339781    0.339888    0.343693    0.345224
     0.348212    0.822826
**WARNING** Hessian does not have the Desired Local Structure

 Transition State Search - Taking P-RFO Step
 Searching for Lamda that Maximizes Along the Lowest mode
 Value Taken    Lamda =   0.00067144
 Searching for Lamda that Minimizes Along All other modes
 Value Taken    Lamda =  -0.00264787
 Calculated Step too Large.  Step scaled by  0.134492
 Step Taken.  Stepsize is  0.300000

                             Maximum     Tolerance    Cnvgd?
         Gradient           0.013404      0.000300      NO
         Displacement       0.097568      0.001200      NO
         Energy change      0.000101      0.000001      NO


 New Cartesian Coordinates Obtained by Inverse Iteration

 Displacement from previous Coordinates is:  0.394812
 ----------------------------------------------------------------
             Standard Nuclear Orientation (Angstroms)
    I     Atom           X                Y                Z
 ----------------------------------------------------------------
    1      C      -1.3986401754    -1.4129239308     0.0378264126
    2      C      -0.9380359219    -0.0559820536    -0.4167654814
    3      C      -1.6672769613     1.1391315782     0.1267196875
    4      C       1.0910195150     0.2902649261     0.3070432226
    5      C       1.8031497413    -1.0118170632    -0.0232461947
    6      O       1.3891758004     1.3405737282    -0.2991921136
    7      H      -2.4373537950    -1.5843302472    -0.2880804805
    8      H      -1.3946857961    -1.4920100201     1.1331042639
    9      H      -0.7880834972    -2.2210272053    -0.3729420396
   10      H      -0.6301978352     0.0222124447    -1.4596007420
   11      H      -1.7589904626     1.0894053770     1.2194591360
   12      H      -2.6892109057     1.1778165892    -0.2822287990
   13      H      -1.1550737727     2.0678309653    -0.1386452375
   14      H       0.6743841753     0.3598403120     1.3337067627
   15      H       1.9616991375    -1.0943583980    -1.1027427544
   16      H       1.2526660728    -1.8804568411     0.3428709271
   17      H       2.7847076077    -0.9952983389     0.4672155923
 ----------------------------------------------------------------
 Molecular Point Group                 C1    NOp =  1
 Largest Abelian Subgroup              C1    NOp =  1
 Nuclear Repulsion Energy =   243.4222744912 hartrees
 There are       25 alpha and       24 beta electrons
 Applying Cartesian multipole field
    Component          Value
    ---------          -----
     (2,0,0)        1.00000E-11
     (0,2,0)        2.00000E-11
     (0,0,2)       -3.00000E-11
 Nucleus-field energy     =     0.0000000073 hartrees
 Requested basis set is non-standard
 There are 138 shells and 314 basis functions
 A cutoff of  1.0D-12 yielded   9123 shell pairs
 There are     47273 function pairs (     56872 Cartesian)
 Smallest overlap matrix eigenvalue = 2.40E-05
 Guess MOs from SCF MO coefficient file
Reading MOs from coefficient file
Reading MOs from coefficient file
 An unrestricted hybrid HF-DFT SCF calculation will be
 performed using Pulay DIIS + Geometric Direct Minimization
 Exchange:     0.5679 Hartree-Fock + 1.0000 M08SO
 SCF converges when RMS gradient is below 1.0E-08
Geometry optimization detected.  Setting ReadMinima to 0
Setting SaveMinima to 0
 Inaccurate integrated density:
   Number of electrons =    49
   Numerical integral  =    48.986252261312
   Relative error      =    -0.0280566096 %
 ---------------------------------------
  Cycle       Energy        RMS Gradient
 ---------------------------------------
    1    -272.1774581043      8.54E-04 Done DIIS. Switching to GDM
    2    -272.1845494907      4.35E-03 Normal BFGS step
    3    -272.1846542474      4.57E-03 Normal BFGS step
    4    -272.1847330285      2.33E-03 Normal BFGS step
    5    -272.1847426037      5.50E-04 Normal BFGS step
    6    -272.1847465336      2.67E-04 Normal BFGS step
    7    -272.1847469956      2.07E-04 Normal BFGS step
    8    -272.1847471842      1.07E-04 Normal BFGS step
    9    -272.1847472258      1.96E-05 Normal BFGS step
   10    -272.1847472307      1.29E-05 Normal BFGS step
   11    -272.1847472322      4.43E-06 Normal BFGS step
   12    -272.1847472325      1.34E-06 Normal BFGS step
   13    -272.1847472325      6.51E-07 Normal BFGS step
   14    -272.1847472325      4.60E-07 Normal BFGS step
   GDM::WARNING energy changes are now smaller than effective accuracy.
   GDM::        calculation will continue, but THRESH should be increased
   GDM::        or SCF_CONVERGENCE decreased.
   GDM::        effective_thresh =   3.075438390065521E-009
   15    -272.1847472325      3.41E-07 Normal BFGS step
   16    -272.1847472325      1.67E-07 Normal BFGS step
   GDM::WARNING energy changes are now smaller than effective accuracy.
   GDM::        calculation will continue, but THRESH should be increased
   GDM::        or SCF_CONVERGENCE decreased.
   GDM::        effective_thresh =   3.075438390065521E-009
   17    -272.1847472324      3.80E-08 Normal BFGS step
   18    -272.1847472326      7.87E-09 Convergence criterion met
 ---------------------------------------
 <S^2> = 0.7685
 SCF time:  CPU 2145.76 s  wall 2150.76 s
 SCF   energy in the final basis set = -272.1847472326
 Total energy in the final basis set = -272.1847472326
 Analysis of SCF Wavefunction
 
 --------------------------------------------------------------
                    Orbital Energies (a.u.)
 --------------------------------------------------------------
 
 Alpha MOs
 -- Occupied --
-19.543 -10.578 -10.543 -10.508 -10.497 -10.495  -1.132  -0.905
 -0.835  -0.798  -0.684  -0.658  -0.553  -0.550  -0.535  -0.507
 -0.494  -0.487  -0.476  -0.457  -0.438  -0.432  -0.425  -0.327
 -0.275
 -- Virtual --
 -0.028  -0.013  -0.012  -0.004   0.012   0.014   0.020   0.023
  0.031   0.034   0.050   0.053   0.065   0.066   0.076   0.084
  0.093   0.101   0.110   0.118   0.122   0.126   0.127   0.131
  0.135   0.141   0.148   0.151   0.161   0.165   0.171   0.184
  0.191   0.208   0.217   0.219   0.220   0.242   0.251   0.271
  0.287   0.290   0.297   0.306   0.312   0.324   0.335   0.335
  0.359   0.373   0.402   0.412   0.432   0.457   0.462   0.470
  0.495   0.515   0.521   0.534   0.535   0.548   0.558   0.563
  0.572   0.577   0.581   0.589   0.606   0.616   0.620   0.625
  0.639   0.647   0.669   0.680   0.692   0.698   0.705   0.726
  0.748   0.761   0.774   0.799   0.827   0.836   0.865   0.878
  0.889   0.910   0.924   0.959   0.997   1.029   1.041   1.054
  1.065   1.073   1.085   1.093   1.103   1.113   1.130   1.143
  1.161   1.167   1.177   1.187   1.214   1.224   1.233   1.261
  1.273   1.279   1.299   1.303   1.318   1.322   1.335   1.349
  1.356   1.367   1.379   1.402   1.413   1.435   1.445   1.461
  1.468   1.473   1.495   1.520   1.522   1.531   1.550   1.562
  1.582   1.599   1.607   1.618   1.669   1.681   1.696   1.807
  1.839   1.921   2.118   2.260   2.351   2.402   2.427   2.468
  2.484   2.520   2.538   2.562   2.578   2.588   2.662   2.672
  2.692   2.706   2.778   2.780   2.805   2.839   2.856   2.891
  2.899   2.912   2.938   2.941   2.968   2.983   3.000   3.027
  3.051   3.073   3.108   3.115   3.137   3.157   3.160   3.189
  3.203   3.217   3.239   3.258   3.272   3.289   3.315   3.326
  3.351   3.373   3.377   3.395   3.414   3.433   3.457   3.484
  3.492   3.538   3.545   3.567   3.567   3.588   3.609   3.628
  3.663   3.697   3.719   3.726   3.746   3.786   3.817   3.833
  3.866   3.876   3.887   3.916   3.926   3.957   3.969   3.988
  4.007   4.018   4.041   4.065   4.109   4.116   4.132   4.150
  4.171   4.181   4.186   4.220   4.237   4.249   4.283   4.292
  4.336   4.357   4.376   4.401   4.416   4.437   4.452   4.473
  4.505   4.533   4.536   4.555   4.595   4.610   4.656   4.763
  4.805   5.016   5.057   5.099   5.157   5.224   5.283   5.358
  5.380   5.407   5.452   5.504   5.561   5.592   5.606   5.618
  5.642   5.648   5.686   6.144   6.365   6.856   6.892   6.970
  7.266   7.384   7.617  23.967  24.147  24.161  24.262  24.425
 49.923
 
 Beta MOs
 -- Occupied --
-19.535 -10.580 -10.529 -10.508 -10.497 -10.495  -1.115  -0.897
 -0.832  -0.797  -0.669  -0.650  -0.546  -0.543  -0.519  -0.499
 -0.489  -0.481  -0.469  -0.453  -0.435  -0.431  -0.392  -0.319
 -- Virtual --
 -0.064  -0.032  -0.016  -0.015  -0.006   0.010   0.013   0.018
  0.021   0.029   0.040   0.047   0.058   0.063   0.066   0.075
  0.084   0.098   0.105   0.112   0.117   0.121   0.124   0.126
  0.130   0.133   0.140   0.148   0.149   0.159   0.163   0.171
  0.185   0.193   0.209   0.218   0.220   0.221   0.245   0.254
  0.272   0.287   0.296   0.302   0.313   0.320   0.330   0.336
  0.339   0.360   0.373   0.405   0.415   0.434   0.457   0.463
  0.471   0.511   0.520   0.522   0.536   0.542   0.551   0.560
  0.566   0.573   0.581   0.583   0.591   0.608   0.624   0.635
  0.637   0.646   0.649   0.669   0.685   0.694   0.701   0.707
  0.730   0.748   0.763   0.775   0.806   0.834   0.841   0.868
  0.880   0.891   0.912   0.929   0.964   1.001   1.031   1.047
  1.059   1.069   1.076   1.088   1.099   1.105   1.118   1.136
  1.148   1.165   1.176   1.187   1.193   1.219   1.235   1.242
  1.269   1.280   1.288   1.302   1.314   1.329   1.335   1.346
  1.356   1.365   1.376   1.387   1.404   1.421   1.442   1.450
  1.464   1.473   1.478   1.502   1.527   1.530   1.542   1.556
  1.566   1.592   1.606   1.616   1.630   1.682   1.694   1.706
  1.819   1.851   1.924   2.129   2.259   2.359   2.408   2.437
  2.479   2.489   2.528   2.546   2.568   2.585   2.612   2.671
  2.694   2.749   2.775   2.804   2.817   2.852   2.868   2.883
  2.905   2.909   2.937   2.938   2.960   2.972   3.000   3.005
  3.048   3.062   3.077   3.117   3.129   3.145   3.162   3.174
  3.200   3.214   3.242   3.252   3.268   3.273   3.296   3.320
  3.336   3.364   3.374   3.377   3.410   3.432   3.462   3.470
  3.486   3.495   3.541   3.548   3.575   3.587   3.617   3.631
  3.659   3.681   3.711   3.735   3.757   3.791   3.798   3.835
  3.840   3.863   3.877   3.903   3.918   3.926   3.956   3.983
  3.991   4.014   4.037   4.046   4.092   4.115   4.126   4.140
  4.163   4.186   4.193   4.200   4.228   4.251   4.273   4.312
  4.317   4.347   4.364   4.383   4.412   4.427   4.447   4.479
  4.489   4.510   4.567   4.587   4.593   4.613   4.647   4.711
  4.853   4.885   5.021   5.085   5.115   5.200   5.256   5.288
  5.362   5.425   5.492   5.514   5.525   5.565   5.589   5.605
  5.626   5.643   5.650   5.680   6.141   6.343   6.874   6.909
  6.967   7.280   7.377   7.605  23.975  24.147  24.165  24.280
 24.422  49.921
 --------------------------------------------------------------
 
          Ground-State Mulliken Net Atomic Charges

     Atom                 Charge (a.u.)    Spin (a.u.)
  --------------------------------------------------------
      1 C                    -0.726634      -0.033465
      2 C                    -0.083121       0.724203
      3 C                    -0.615616      -0.026515
      4 C                    -0.059902      -0.074345
      5 C                    -0.597181       0.000304
      6 O                    -0.304791       0.299892
      7 H                     0.208310       0.046743
      8 H                     0.239257       0.011883
      9 H                     0.201925       0.005146
     10 H                     0.287008      -0.036739
     11 H                     0.195326       0.008161
     12 H                     0.194946       0.035186
     13 H                     0.226465       0.006056
     14 H                     0.222986       0.023092
     15 H                     0.222654       0.004676
     16 H                     0.189493       0.000669
     17 H                     0.198875       0.005054
  --------------------------------------------------------
  Sum of atomic charges =     0.000000
  Sum of spin   charges =     1.000000

 -----------------------------------------------------------------
                    Cartesian Multipole Moments
 -----------------------------------------------------------------
    Charge (ESU x 10^10)
                 0.0000
    Dipole Moment (Debye)
         X      -2.1155      Y      -2.7654      Z       0.7968
       Tot       3.5718
    Quadrupole Moments (Debye-Ang)
        XX     -39.8794     XY      -4.4634     YY     -43.3820
        XZ       1.8862     YZ       1.2911     ZZ     -39.2165
    Octopole Moments (Debye-Ang^2)
       XXX       0.2080    XXY      -5.7558    XYY      -6.1775
       YYY      -1.9414    XXZ       2.8169    XYZ       2.1119
       YYZ       1.5694    XZZ       0.8886    YZZ       0.8680
       ZZZ       2.5734
    Hexadecapole Moments (Debye-Ang^3)
      XXXX    -565.8876   XXXY      -4.8905   XXYY    -165.1502
      XYYY      -3.0653   YYYY    -357.1768   XXXZ      14.6757
      XXYZ       3.4700   XYYZ       3.1840   YYYZ       2.3623
      XXZZ    -113.2605   XYZZ       0.3064   YYZZ     -75.4209
      XZZZ      -0.2609   YZZZ       3.0331   ZZZZ     -91.2228
 -----------------------------------------------------------------
 Calculating analytic gradient of the SCF energy
 Gradient of Coulomb and Exchange Energy
            1           2           3           4           5           6
    1   3.0573722   3.4009799   2.9931985  -1.7603420  -3.7014869  -6.5479162
    2   2.4979726   0.9523173  -1.9210902   5.3554951   2.3745206 -13.4406616
    3   0.0795893   1.0221527  -0.8869362  -4.7686673   0.2298608   6.2370707
            7           8           9          10          11          12
    1   3.7615227   0.3021211  -1.7435117  -1.1124726   0.9176193   3.7515142
    2   1.1822598   1.0770536   3.3373078  -0.4354108  -0.5824476  -0.7388061
    3   0.9051220  -3.6619907   1.1139125   4.9186190  -3.7016180   1.0968509
           13          14          15          16          17
    1  -1.0621889   1.3251797  -0.9927505   1.2578200  -3.8466588
    2  -3.8061912  -0.8124547   1.0657316   3.4723613   0.4220425
    3   0.6869167  -4.4146640   3.8602045  -1.0384014  -1.6780216
 Gradient of SCF Energy
            1           2           3           4           5           6
    1  -0.0035446   0.0092604  -0.0037815  -0.0191490   0.0054090   0.0101482
    2  -0.0026430   0.0015126   0.0012636  -0.0198564  -0.0010078   0.0182699
    3  -0.0012169   0.0021233  -0.0003821   0.0086110   0.0014921  -0.0104341
            7           8           9          10          11          12
    1   0.0007523  -0.0002705  -0.0003670  -0.0022347   0.0000031   0.0004766
    2  -0.0005294  -0.0003617   0.0012881   0.0002705   0.0006775   0.0002895
    3   0.0005153  -0.0011913   0.0011099   0.0005174  -0.0009813   0.0006419
           13          14          15          16          17
    1  -0.0010607   0.0042943   0.0001470   0.0002743  -0.0003574
    2  -0.0010568   0.0006765  -0.0004902   0.0024787  -0.0007818
    3   0.0004426  -0.0001159   0.0009389  -0.0014225  -0.0006483
 Max gradient component =       1.986E-02
 RMS gradient           =       5.580E-03
 Gradient time:  CPU 127.25 s  wall 127.02 s
 Geometry Optimization Parameters
   NAtoms,    NIC,     NZ,  NCons,   NDum,   NFix, NCnnct, MaxDiis
       17     126       0       0       0       0       0       0

 Cartesian Hessian Update
 Hessian Updated using Powell/Murtagh-Sargent Update
  Mixing factors:     0.981905 Powell
                      0.018095 Murtagh-Sargent


** GEOMETRY OPTIMIZATION IN DELOCALIZED INTERNAL COORDINATES **
   Searching for a Transition State

   Optimization Cycle:   3

                       Coordinates (Angstroms)
     ATOM                X               Y               Z
      1  C        -1.3986401754   -1.4129239308    0.0378264126
      2  C        -0.9380359219   -0.0559820536   -0.4167654814
      3  C        -1.6672769613    1.1391315782    0.1267196875
      4  C         1.0910195150    0.2902649261    0.3070432226
      5  C         1.8031497413   -1.0118170632   -0.0232461947
      6  O         1.3891758004    1.3405737282   -0.2991921136
      7  H        -2.4373537950   -1.5843302472   -0.2880804805
      8  H        -1.3946857961   -1.4920100201    1.1331042639
      9  H        -0.7880834972   -2.2210272053   -0.3729420396
     10  H        -0.6301978352    0.0222124447   -1.4596007420
     11  H        -1.7589904626    1.0894053770    1.2194591360
     12  H        -2.6892109057    1.1778165892   -0.2822287990
     13  H        -1.1550737727    2.0678309653   -0.1386452375
     14  H         0.6743841753    0.3598403120    1.3337067627
     15  H         1.9616991375   -1.0943583980   -1.1027427544
     16  H         1.2526660728   -1.8804568411    0.3428709271
     17  H         2.7847076077   -0.9952983389    0.4672155923
   Point Group: c1    Number of degrees of freedom:    45


   Energy is   -272.184747233

 GETINT wrote B to file, NVib is           45
 Hessian Updated using Powell/Murtagh-Sargent Update
  Mixing factors:     0.999433 Powell
                      0.000567 Murtagh-Sargent

 45 Hessian modes will be used to form the next step
  Hessian Eigenvalues:
     0.000037    0.008144    0.008830    0.010622    0.026870    0.029880
     0.036746    0.038824    0.043899    0.052156    0.054792    0.057986
     0.059155    0.059680    0.062341    0.063294    0.072267    0.080143
     0.094806    0.099531    0.111856    0.114687    0.125140    0.144248
     0.146937    0.154036    0.159981    0.159999    0.160000    0.182303
     0.296178    0.307085    0.320943    0.326365    0.334761    0.335446
     0.337495    0.338682    0.339481    0.339781    0.339887    0.343693
     0.345224    0.348212    0.822599
**WARNING** Magnitude of eigenvalue   1 too small.  Replaced by     0.000100
**WARNING** Hessian does not have the Desired Local Structure

 Transition State Search - Taking P-RFO Step
 Searching for Lamda that Maximizes Along the Lowest mode
 Value Taken    Lamda =   0.00011518
 Searching for Lamda that Minimizes Along All other modes
 Value Taken    Lamda =  -0.00221909
 Calculated Step too Large.  Step scaled by  0.108642
 Step Taken.  Stepsize is  0.300000

                             Maximum     Tolerance    Cnvgd?
         Gradient           0.012641      0.000300      NO
         Displacement       0.097986      0.001200      NO
         Energy change     -0.000229      0.000001      NO


 New Cartesian Coordinates Obtained by Inverse Iteration

 Displacement from previous Coordinates is:  0.390850
 ----------------------------------------------------------------
             Standard Nuclear Orientation (Angstroms)
    I     Atom           X                Y                Z
 ----------------------------------------------------------------
    1      C      -1.3867592900    -1.4166969440     0.0097972433
    2      C      -0.9491429984    -0.0474909970    -0.4274526610
    3      C      -1.6721891661     1.1333880122     0.1527012188
    4      C       1.1070644510     0.3088562548     0.2774670516
    5      C       1.7906285612    -1.0208187797     0.0062455264
    6      O       1.4114121615     1.3223816302    -0.3792339114
    7      H      -2.4250037448    -1.6012333184    -0.3108996866
    8      H      -1.3721912468    -1.5113806161     1.1040585163
    9      H      -0.7628602987    -2.2059081588    -0.4180105178
   10      H      -0.6540283091     0.0540934805    -1.4718383724
   11      H      -1.7522143781     1.0569404386     1.2449749834
   12      H      -2.6986584907     1.1831875555    -0.2439452703
   13      H      -1.1626815015     2.0685349384    -0.0969933493
   14      H       0.6888183868     0.4315779069     1.2987519939
   15      H       1.9500356223    -1.1519337268    -1.0684540586
   16      H       1.2163261194    -1.8585918687     0.4072124998
   17      H       2.7706970489    -1.0060339849     0.5001209560
 ----------------------------------------------------------------
 Molecular Point Group                 C1    NOp =  1
 Largest Abelian Subgroup              C1    NOp =  1
 Nuclear Repulsion Energy =   243.2074821589 hartrees
 There are       25 alpha and       24 beta electrons
 Applying Cartesian multipole field
    Component          Value
    ---------          -----
     (2,0,0)        1.00000E-11
     (0,2,0)        2.00000E-11
     (0,0,2)       -3.00000E-11
 Nucleus-field energy     =     0.0000000072 hartrees
 Requested basis set is non-standard
 There are 138 shells and 314 basis functions
 A cutoff of  1.0D-12 yielded   9113 shell pairs
 There are     47225 function pairs (     56814 Cartesian)
 Smallest overlap matrix eigenvalue = 2.39E-05
 Guess MOs from SCF MO coefficient file
Reading MOs from coefficient file
Reading MOs from coefficient file
 An unrestricted hybrid HF-DFT SCF calculation will be
 performed using Pulay DIIS + Geometric Direct Minimization
 Exchange:     0.5679 Hartree-Fock + 1.0000 M08SO
 SCF converges when RMS gradient is below 1.0E-08
Geometry optimization detected.  Setting ReadMinima to 0
Setting SaveMinima to 0
 Inaccurate integrated density:
   Number of electrons =    49
   Numerical integral  =    48.987872624040
   Relative error      =    -0.0247497469 %
 ---------------------------------------
  Cycle       Energy        RMS Gradient
 ---------------------------------------
    1    -272.1767760821      8.46E-04 Done DIIS. Switching to GDM
    2    -272.1847579228      6.36E-03 Normal BFGS step
    3    -272.1848446517      5.47E-03 Normal BFGS step
    4    -272.1849677552      2.21E-03 Normal BFGS step
    5    -272.1849776113      6.08E-04 Normal BFGS step
    6    -272.1849823608      4.68E-04 Normal BFGS step
    7    -272.1849835641      2.42E-04 Normal BFGS step
    8    -272.1849839501      4.99E-05 Normal BFGS step
    9    -272.1849839839      3.90E-05 Normal BFGS step
   10    -272.1849839927      1.21E-05 Normal BFGS step
   11    -272.1849839944      8.03E-06 Normal BFGS step
   12    -272.1849839947      4.64E-06 Normal BFGS step
   13    -272.1849839948      2.84E-06 Normal BFGS step
   14    -272.1849839948      8.35E-07 Normal BFGS step
   15    -272.1849839948      1.58E-07 Normal BFGS step
   16    -272.1849839948      6.06E-08 Normal BFGS step
   GDM::WARNING energy changes are now smaller than effective accuracy.
   GDM::        calculation will continue, but THRESH should be increased
   GDM::        or SCF_CONVERGENCE decreased.
   GDM::        effective_thresh =   1.291384825463648E-009
   17    -272.1849839948      1.79E-08 Normal BFGS step
   GDM::WARNING energy changes are now smaller than effective accuracy.
   GDM::        calculation will continue, but THRESH should be increased
   GDM::        or SCF_CONVERGENCE decreased.
   GDM::        effective_thresh =   1.291384825463648E-009
   18    -272.1849839946      6.68E-09 Convergence criterion met
 ---------------------------------------
 <S^2> = 0.7675
 SCF time:  CPU 2153.25 s  wall 2158.65 s
 SCF   energy in the final basis set = -272.1849839946
 Total energy in the final basis set = -272.1849839946
 Analysis of SCF Wavefunction
 
 --------------------------------------------------------------
                    Orbital Energies (a.u.)
 --------------------------------------------------------------
 
 Alpha MOs
 -- Occupied --
-19.543 -10.579 -10.541 -10.507 -10.497 -10.495  -1.133  -0.905
 -0.836  -0.798  -0.682  -0.658  -0.553  -0.549  -0.536  -0.507
 -0.495  -0.488  -0.476  -0.456  -0.438  -0.432  -0.424  -0.327
 -0.274
 -- Virtual --
 -0.028  -0.013  -0.012  -0.004   0.012   0.014   0.020   0.023
  0.031   0.034   0.050   0.053   0.065   0.066   0.075   0.084
  0.093   0.101   0.110   0.118   0.122   0.126   0.127   0.130
  0.135   0.142   0.148   0.150   0.160   0.164   0.171   0.184
  0.191   0.207   0.217   0.218   0.221   0.241   0.253   0.271
  0.287   0.291   0.296   0.308   0.313   0.323   0.335   0.336
  0.362   0.372   0.405   0.412   0.430   0.457   0.463   0.471
  0.494   0.515   0.520   0.533   0.534   0.547   0.558   0.562
  0.571   0.577   0.584   0.592   0.604   0.615   0.620   0.625
  0.638   0.646   0.667   0.679   0.693   0.698   0.705   0.729
  0.747   0.759   0.775   0.801   0.825   0.836   0.862   0.875
  0.885   0.913   0.921   0.960   0.995   1.032   1.043   1.053
  1.066   1.075   1.088   1.091   1.102   1.115   1.131   1.142
  1.162   1.168   1.178   1.189   1.213   1.229   1.236   1.254
  1.273   1.281   1.295   1.299   1.319   1.324   1.335   1.354
  1.359   1.366   1.381   1.400   1.416   1.435   1.445   1.460
  1.465   1.474   1.493   1.516   1.521   1.530   1.552   1.561
  1.584   1.596   1.610   1.617   1.671   1.679   1.690   1.806
  1.840   1.921   2.118   2.263   2.353   2.399   2.429   2.464
  2.483   2.522   2.536   2.562   2.582   2.592   2.657   2.673
  2.695   2.706   2.780   2.780   2.810   2.839   2.853   2.890
  2.898   2.913   2.938   2.945   2.966   2.982   3.000   3.023
  3.057   3.073   3.104   3.114   3.131   3.152   3.155   3.187
  3.201   3.213   3.238   3.255   3.268   3.291   3.311   3.327
  3.347   3.372   3.376   3.392   3.409   3.429   3.453   3.490
  3.495   3.537   3.542   3.569   3.572   3.584   3.611   3.629
  3.657   3.699   3.715   3.725   3.746   3.786   3.817   3.830
  3.862   3.877   3.884   3.914   3.928   3.956   3.967   3.988
  4.002   4.019   4.042   4.068   4.103   4.114   4.125   4.149
  4.172   4.180   4.187   4.214   4.232   4.250   4.282   4.296
  4.336   4.357   4.378   4.403   4.416   4.439   4.453   4.473
  4.511   4.533   4.535   4.555   4.599   4.610   4.657   4.764
  4.811   5.015   5.058   5.096   5.157   5.224   5.285   5.361
  5.382   5.409   5.450   5.504   5.561   5.591   5.605   5.617
  5.639   5.651   5.690   6.154   6.380   6.855   6.892   6.977
  7.263   7.382   7.617  23.969  24.148  24.160  24.263  24.431
 49.926
 
 Beta MOs
 -- Occupied --
-19.535 -10.581 -10.527 -10.508 -10.498 -10.495  -1.118  -0.896
 -0.833  -0.797  -0.668  -0.651  -0.547  -0.543  -0.520  -0.499
 -0.490  -0.481  -0.470  -0.453  -0.436  -0.432  -0.394  -0.320
 -- Virtual --
 -0.061  -0.032  -0.016  -0.015  -0.006   0.010   0.013   0.018
  0.020   0.029   0.040   0.047   0.058   0.063   0.066   0.075
  0.084   0.099   0.103   0.111   0.117   0.121   0.124   0.126
  0.129   0.133   0.141   0.147   0.149   0.159   0.162   0.171
  0.185   0.192   0.209   0.218   0.219   0.222   0.244   0.256
  0.273   0.286   0.295   0.303   0.314   0.320   0.330   0.336
  0.339   0.363   0.372   0.408   0.415   0.432   0.456   0.464
  0.472   0.509   0.521   0.521   0.535   0.541   0.550   0.560
  0.566   0.573   0.582   0.586   0.593   0.605   0.623   0.636
  0.638   0.645   0.648   0.668   0.685   0.694   0.702   0.707
  0.732   0.747   0.761   0.776   0.808   0.834   0.838   0.866
  0.878   0.888   0.915   0.926   0.965   0.999   1.034   1.049
  1.058   1.069   1.078   1.091   1.096   1.104   1.120   1.138
  1.148   1.168   1.177   1.187   1.194   1.219   1.241   1.245
  1.264   1.280   1.288   1.298   1.313   1.330   1.337   1.347
  1.359   1.368   1.376   1.388   1.403   1.423   1.443   1.451
  1.463   1.468   1.480   1.500   1.524   1.527   1.541   1.557
  1.564   1.594   1.604   1.617   1.630   1.683   1.692   1.701
  1.818   1.852   1.924   2.129   2.262   2.361   2.405   2.439
  2.476   2.488   2.529   2.544   2.568   2.590   2.615   2.666
  2.699   2.750   2.779   2.805   2.817   2.858   2.868   2.886
  2.905   2.908   2.934   2.941   2.961   2.971   2.999   3.006
  3.043   3.066   3.078   3.115   3.130   3.140   3.158   3.168
  3.200   3.209   3.234   3.250   3.266   3.270   3.299   3.313
  3.337   3.360   3.374   3.377   3.406   3.429   3.455   3.472
  3.492   3.497   3.540   3.550   3.576   3.590   3.613   3.634
  3.654   3.679   3.709   3.737   3.752   3.791   3.797   3.833
  3.840   3.859   3.876   3.900   3.913   3.929   3.954   3.984
  3.989   4.010   4.039   4.049   4.092   4.112   4.122   4.136
  4.159   4.187   4.192   4.200   4.223   4.248   4.269   4.311
  4.320   4.347   4.364   4.385   4.414   4.427   4.450   4.479
  4.489   4.515   4.564   4.589   4.595   4.611   4.644   4.716
  4.856   4.894   5.019   5.084   5.111   5.202   5.256   5.286
  5.365   5.426   5.492   5.518   5.524   5.565   5.589   5.604
  5.625   5.643   5.650   5.684   6.150   6.359   6.872   6.910
  6.971   7.276   7.375   7.606  23.978  24.147  24.165  24.281
 24.428  49.923
 --------------------------------------------------------------
 
          Ground-State Mulliken Net Atomic Charges

     Atom                 Charge (a.u.)    Spin (a.u.)
  --------------------------------------------------------
      1 C                    -0.764204      -0.036379
      2 C                    -0.052619       0.743662
      3 C                    -0.619151      -0.027226
      4 C                    -0.060860      -0.071879
      5 C                    -0.601182      -0.001045
      6 O                    -0.304654       0.279738
      7 H                     0.208042       0.047933
      8 H                     0.245255       0.012302
      9 H                     0.207318       0.005930
     10 H                     0.287386      -0.037544
     11 H                     0.194158       0.008207
     12 H                     0.194190       0.036851
     13 H                     0.227890       0.006916
     14 H                     0.218504       0.021860
     15 H                     0.226540       0.004787
     16 H                     0.195094       0.000993
     17 H                     0.198293       0.004893
  --------------------------------------------------------
  Sum of atomic charges =     0.000000
  Sum of spin   charges =     1.000000

 -----------------------------------------------------------------
                    Cartesian Multipole Moments
 -----------------------------------------------------------------
    Charge (ESU x 10^10)
                 0.0000
    Dipole Moment (Debye)
         X      -2.1035      Y      -2.7084      Z       0.9425
       Tot       3.5565
    Quadrupole Moments (Debye-Ang)
        XX     -39.9733     XY      -4.4742     YY     -43.2531
        XZ       2.1609     YZ       1.5501     ZZ     -39.3889
    Octopole Moments (Debye-Ang^2)
       XXX      -0.1897    XXY      -5.7769    XYY      -6.0471
       YYY      -1.4324    XXZ       3.6912    XYZ       2.5150
       YYZ       2.3316    XZZ       0.5803    YZZ       0.6883
       ZZZ       3.9293
    Hexadecapole Moments (Debye-Ang^3)
      XXXX    -566.7774   XXXY      -5.5214   XXYY    -164.9937
      XYYY      -3.0637   YYYY    -357.3566   XXXZ      16.3580
      XXYZ       4.2954   XYYZ       3.8901   YYYZ       3.8416
      XXZZ    -114.1235   XYZZ      -0.0146   YYZZ     -75.5584
      XZZZ       1.0839   YZZZ       3.8904   ZZZZ     -93.2441
 -----------------------------------------------------------------
 Calculating analytic gradient of the SCF energy
 Gradient of Coulomb and Exchange Energy
            1           2           3           4           5           6
    1   3.1485082   3.2213547   3.0316143  -1.7318620  -3.6923187  -6.5753732
    2   2.5300361   0.9920070  -1.9867955   5.2493219   2.3998208 -13.1862223
    3   0.1597613   0.7992244  -0.8546926  -5.0009003   0.0389292   6.9879555
            7           8           9          10          11          12
    1   3.7725148   0.2223404  -1.8230147  -1.0445830   0.8613086   3.7599973
    2   1.2203112   1.1203307   3.2490068  -0.5409034  -0.4922672  -0.7605621
    3   0.9185407  -3.6317049   1.1459671   4.9315242  -3.7017456   1.0453807
           13          14          15          16          17
    1  -1.0638745   1.3376974  -0.9600922   1.3764932  -3.8407108
    2  -3.7913577  -1.0500335   1.2434971   3.3756527   0.4281575
    3   0.5814891  -4.3515697   3.8165726  -1.1640062  -1.7207256
 Gradient of SCF Energy
            1           2           3           4           5           6
    1  -0.0034932   0.0110201  -0.0038154  -0.0208010   0.0054955   0.0099517
    2  -0.0027831   0.0019045   0.0013042  -0.0195739  -0.0008998   0.0172568
    3  -0.0011206   0.0024906  -0.0003180   0.0084863   0.0016796  -0.0110618
            7           8           9          10          11          12
    1   0.0006944  -0.0002547   0.0001411  -0.0023756   0.0000225   0.0004590
    2  -0.0004107  -0.0002297   0.0014582   0.0002993   0.0005961   0.0001568
    3   0.0004899  -0.0010604   0.0010869   0.0003636  -0.0008536   0.0006280
           13          14          15          16          17
    1  -0.0009366   0.0043173   0.0000909  -0.0002510  -0.0002651
    2  -0.0010396   0.0008039  -0.0002998   0.0022760  -0.0008194
    3   0.0003693   0.0000405   0.0008693  -0.0014658  -0.0006238
 Max gradient component =       2.080E-02
 RMS gradient           =       5.694E-03
 Gradient time:  CPU 126.76 s  wall 126.86 s
 Geometry Optimization Parameters
   NAtoms,    NIC,     NZ,  NCons,   NDum,   NFix, NCnnct, MaxDiis
       17     126       0       0       0       0       0       0

 Cartesian Hessian Update
 Hessian Updated using Powell/Murtagh-Sargent Update
  Mixing factors:     0.987038 Powell
                      0.012962 Murtagh-Sargent


** GEOMETRY OPTIMIZATION IN DELOCALIZED INTERNAL COORDINATES **
   Searching for a Transition State

   Optimization Cycle:   4

                       Coordinates (Angstroms)
     ATOM                X               Y               Z
      1  C        -1.3867592900   -1.4166969440    0.0097972433
      2  C        -0.9491429984   -0.0474909970   -0.4274526610
      3  C        -1.6721891661    1.1333880122    0.1527012188
      4  C         1.1070644510    0.3088562548    0.2774670516
      5  C         1.7906285612   -1.0208187797    0.0062455264
      6  O         1.4114121615    1.3223816302   -0.3792339114
      7  H        -2.4250037448   -1.6012333184   -0.3108996866
      8  H        -1.3721912468   -1.5113806161    1.1040585163
      9  H        -0.7628602987   -2.2059081588   -0.4180105178
     10  H        -0.6540283091    0.0540934805   -1.4718383724
     11  H        -1.7522143781    1.0569404386    1.2449749834
     12  H        -2.6986584907    1.1831875555   -0.2439452703
     13  H        -1.1626815015    2.0685349384   -0.0969933493
     14  H         0.6888183868    0.4315779069    1.2987519939
     15  H         1.9500356223   -1.1519337268   -1.0684540586
     16  H         1.2163261194   -1.8585918687    0.4072124998
     17  H         2.7706970489   -1.0060339849    0.5001209560
   Point Group: c1    Number of degrees of freedom:    45


   Energy is   -272.184983995

 GETINT wrote B to file, NVib is           45
 Hessian Updated using Powell/Murtagh-Sargent Update
  Mixing factors:     0.997631 Powell
                      0.002369 Murtagh-Sargent

 45 Hessian modes will be used to form the next step
  Hessian Eigenvalues:
    -0.000957    0.008140    0.008829    0.010621    0.027019    0.029866
     0.036756    0.038835    0.043830    0.052159    0.054792    0.057986
     0.059174    0.059681    0.062341    0.063451    0.072283    0.080181
     0.094807    0.099583    0.111856    0.114688    0.125141    0.144239
     0.146925    0.154033    0.159982    0.160000    0.160001    0.182286
     0.296179    0.307081    0.320940    0.326365    0.334761    0.335446
     0.337495    0.338682    0.339481    0.339781    0.339887    0.343693
     0.345223    0.348212    0.822317

 Transition State Search - Taking P-RFO Step
 Searching for Lamda that Maximizes Along the Lowest mode
 Value Taken    Lamda =   0.00055823
 Searching for Lamda that Minimizes Along All other modes
 Value Taken    Lamda =  -0.00221837
 Calculated Step too Large.  Step scaled by  0.469940
 Step Taken.  Stepsize is  0.300000

                             Maximum     Tolerance    Cnvgd?
         Gradient           0.012454      0.000300      NO
         Displacement       0.117664      0.001200      NO
         Energy change     -0.000237      0.000001      NO


 New Cartesian Coordinates Obtained by Inverse Iteration

 Displacement from previous Coordinates is:  0.417752
 ----------------------------------------------------------------
             Standard Nuclear Orientation (Angstroms)
    I     Atom           X                Y                Z
 ----------------------------------------------------------------
    1      C      -1.3891238100    -1.4139702068     0.0390498451
    2      C      -0.9354768529    -0.0595795167    -0.4230250955
[...]
 H         -0.169 -0.014 -0.051    0.339  0.048  0.126   -0.045  0.768 -0.017
 H          0.152 -0.012 -0.004   -0.158 -0.050 -0.008    0.176 -0.150 -0.051
 H         -0.096  0.220  0.086    0.109 -0.287 -0.092    0.028  0.012 -0.032
 H          0.145 -0.106  0.028   -0.165  0.126 -0.030    0.163 -0.168 -0.087
 H          0.131 -0.090 -0.142    0.490  0.032  0.133   -0.016 -0.026 -0.005
 H         -0.218  0.581  0.096   -0.255  0.277  0.068   -0.006 -0.009  0.001
 H          0.172 -0.240 -0.169   -0.071 -0.050 -0.138   -0.011  0.007 -0.002
 H         -0.050  0.303 -0.133    0.107 -0.093 -0.157    0.004 -0.003  0.003
 TransDip   0.141 -0.065 -0.020   -0.146 -0.057 -0.028   -0.001  0.018 -0.010

 Mode:                22                     23                     24
 Frequency:      1178.83                1340.25                1350.11
 Force Cnst:      1.4789                 1.3124                 1.3529
 Red. Mass:       1.8062                 1.2401                 1.2598
 IR Active:          YES                    YES                    YES
 IR Intens:        2.024                  7.304                  2.606
 Raman Active:       YES                    YES                    YES
               X      Y      Z        X      Y      Z        X      Y      Z
 C          0.054 -0.035 -0.101   -0.015  0.001  0.029   -0.026 -0.019  0.039
 C         -0.082  0.029  0.173    0.020 -0.079  0.004    0.014 -0.108  0.002
 C          0.058  0.019 -0.129    0.016  0.002 -0.029    0.022  0.001 -0.038
 C          0.007  0.007  0.005    0.025 -0.010 -0.046   -0.014  0.007  0.023
 C          0.001 -0.002 -0.008    0.032 -0.026 -0.034   -0.036  0.036  0.028
 O         -0.001 -0.005  0.000   -0.023 -0.045  0.048    0.015  0.027 -0.028
 H         -0.048  0.185  0.174    0.017  0.082 -0.155   -0.003  0.211 -0.199
 H         -0.034  0.399 -0.061    0.105  0.075  0.015    0.163  0.165  0.022
 H         -0.063 -0.277  0.209    0.055  0.126 -0.105    0.156  0.230 -0.154
 H         -0.312  0.071  0.110   -0.064  0.368 -0.004   -0.089  0.473 -0.005
 H          0.203 -0.502 -0.118   -0.097  0.060 -0.032   -0.128  0.081 -0.043
 H         -0.075 -0.164  0.184   -0.068  0.105  0.148   -0.088  0.137  0.189
 H         -0.049  0.163  0.217   -0.123  0.113  0.103   -0.161  0.148  0.141
 H         -0.076  0.000 -0.028   -0.051  0.741 -0.032    0.042 -0.458  0.018
 H          0.012 -0.012 -0.005   -0.122  0.096 -0.037    0.125 -0.120  0.035
 H          0.008  0.005  0.014   -0.148  0.117  0.097    0.181 -0.119 -0.093
 H         -0.008  0.001  0.020   -0.056  0.164  0.139    0.047 -0.196 -0.114
 TransDip  -0.041 -0.006  0.019    0.071  0.048 -0.014   -0.026 -0.044 -0.010

 Mode:                25                     26                     27
 Frequency:      1375.28                1392.91                1398.28
 Force Cnst:      1.4423                 1.4394                 1.7496
 Red. Mass:       1.2943                 1.2592                 1.5188
 IR Active:          YES                    YES                    YES
 IR Intens:       23.418                  8.552                 23.369
 Raman Active:       YES                    YES                    YES
               X      Y      Z        X      Y      Z        X      Y      Z
 C         -0.001 -0.006 -0.005    0.031  0.053 -0.035    0.037  0.136 -0.014
 C          0.001  0.024  0.000   -0.008  0.024  0.014    0.027 -0.131  0.000
 C         -0.007  0.001  0.008    0.076 -0.100 -0.031   -0.040  0.081 -0.016
 C          0.031 -0.018 -0.043   -0.006  0.005 -0.006   -0.004 -0.002  0.004
 C         -0.076  0.106  0.035   -0.001  0.006  0.010   -0.004  0.009  0.009
 O         -0.018 -0.037  0.035    0.000 -0.003  0.002    0.004  0.006 -0.003
 H         -0.008  0.013  0.010    0.010 -0.236  0.243    0.090 -0.452  0.132
 H          0.012 -0.022 -0.007   -0.222 -0.229 -0.019   -0.196 -0.375 -0.013
 H          0.006 -0.026  0.042   -0.147 -0.168  0.125   -0.309 -0.182  0.080
 H          0.010 -0.079 -0.002   -0.023 -0.067  0.012   -0.092  0.422 -0.013
 H          0.040 -0.032  0.010   -0.272  0.305 -0.051    0.025 -0.126 -0.012
 H          0.019 -0.025 -0.045   -0.058  0.466  0.219   -0.070 -0.299  0.087
 H          0.033 -0.032 -0.038   -0.436  0.206  0.099    0.270 -0.052  0.093
 H         -0.002  0.485 -0.037    0.028 -0.017  0.006    0.015 -0.038  0.007
 H          0.360 -0.375  0.059    0.020 -0.042  0.011    0.012 -0.084  0.014
 H          0.340 -0.193 -0.220   -0.007 -0.020 -0.054   -0.003 -0.035 -0.085
 H          0.100 -0.400 -0.272    0.018 -0.005 -0.046    0.009  0.013 -0.033
 TransDip   0.130 -0.056 -0.062   -0.055  0.054  0.054   -0.008 -0.152  0.028

 Mode:                28                     29                     30
 Frequency:      1450.25                1452.89                1454.06
 Force Cnst:      1.3047                 1.3219                 1.3185
 Red. Mass:       1.0529                 1.0629                 1.0584
 IR Active:          YES                    YES                    YES
 IR Intens:        3.411                 16.740                  1.546
 Raman Active:       YES                    YES                    YES
               X      Y      Z        X      Y      Z        X      Y      Z
 C          0.019 -0.007 -0.012   -0.019  0.017 -0.023   -0.002 -0.011  0.017
 C          0.006 -0.033 -0.007   -0.005  0.000 -0.011    0.002  0.039 -0.005
 C         -0.021  0.000  0.005    0.021  0.018  0.004    0.021  0.002 -0.020
 C         -0.014  0.000 -0.004   -0.002 -0.029 -0.002   -0.011  0.005  0.006
 C         -0.026 -0.026 -0.016   -0.014  0.008 -0.036   -0.017 -0.034  0.011
 O          0.001 -0.002  0.003    0.004  0.019 -0.004    0.000 -0.006  0.001
 H         -0.080  0.067  0.347   -0.049  0.166  0.034    0.051 -0.096 -0.158
 H         -0.363 -0.025  0.029    0.157 -0.302 -0.046    0.087  0.129  0.009
 H          0.147  0.156 -0.111    0.185 -0.038  0.342   -0.136 -0.055 -0.091
 H         -0.015  0.128 -0.007    0.016 -0.009 -0.006    0.012 -0.118 -0.010
 H          0.263  0.050  0.035   -0.316 -0.144 -0.039   -0.366  0.062 -0.051
 H          0.085  0.032 -0.223   -0.093 -0.023  0.242   -0.148 -0.165  0.362
 H         -0.094  0.068  0.093    0.093 -0.083 -0.190    0.239 -0.103  0.033
 H          0.013  0.033  0.011    0.001  0.022 -0.006    0.003  0.009  0.016
 H          0.318  0.365 -0.034   -0.094  0.236 -0.038    0.427  0.199 -0.005
 H          0.074  0.136  0.414    0.333  0.020  0.330   -0.199  0.138  0.184
 H          0.064 -0.176 -0.192   -0.058 -0.320  0.244    0.116  0.078 -0.410
 TransDip   0.038  0.041  0.018    0.027 -0.075  0.104    0.016  0.023 -0.028

 Mode:                31                     32                     33
 Frequency:      1460.52                1472.34                1476.09
 Force Cnst:      1.3650                 1.3504                 1.3568
 Red. Mass:       1.0861                 1.0573                 1.0570
 IR Active:          YES                    YES                    YES
 IR Intens:       17.590                  4.187                 13.081
 Raman Active:       YES                    YES                    YES
               X      Y      Z        X      Y      Z        X      Y      Z
 C         -0.022  0.038 -0.010    0.006 -0.026 -0.017   -0.023  0.001 -0.029
 C         -0.003 -0.033  0.020    0.026 -0.012 -0.013   -0.014  0.004 -0.015
 C          0.000  0.012  0.031    0.011  0.033  0.022   -0.011 -0.015 -0.028
 C         -0.010  0.030 -0.005    0.006  0.008  0.003   -0.003  0.023 -0.006
 C         -0.002 -0.026  0.016    0.011 -0.002  0.021    0.010 -0.010  0.019
 O         -0.002 -0.018  0.005   -0.002 -0.006  0.002   -0.003 -0.016  0.006
 H          0.036  0.031 -0.220   -0.120  0.179  0.382   -0.095  0.303  0.111
 H          0.358 -0.205 -0.054   -0.329 -0.044  0.023    0.128 -0.328 -0.048
 H          0.003 -0.134  0.314    0.288  0.216 -0.051    0.339  0.034  0.391
 H         -0.029  0.091  0.022   -0.025  0.057 -0.031    0.015 -0.005 -0.008
 H          0.149 -0.308  0.022   -0.276 -0.312 -0.026    0.098  0.343  0.005
 H          0.103  0.269 -0.229   -0.064  0.073  0.166   -0.016 -0.233  0.013
 H         -0.265  0.048 -0.324    0.038 -0.102 -0.375    0.146  0.035  0.414
 H          0.020 -0.043  0.015   -0.004  0.008 -0.002    0.027 -0.009  0.008
 H          0.240  0.072  0.007    0.006 -0.171  0.024    0.044 -0.081  0.018
 H         -0.200  0.070  0.021   -0.217 -0.020 -0.239   -0.189  0.003 -0.149
 H          0.078  0.129 -0.280    0.020  0.215 -0.107    0.032  0.164 -0.128
 TransDip   0.031  0.060 -0.116   -0.064  0.015 -0.003    0.070  0.067  0.063

 Mode:                34                     35                     36
 Frequency:      1570.63                2880.44                2951.15
 Force Cnst:      7.7416                 5.2819                 5.3551
 Red. Mass:       5.3264                 1.0805                 1.0436
 IR Active:          YES                    YES                    YES
 IR Intens:       77.410                 73.893                 13.449
 Raman Active:       YES                    YES                    YES
               X      Y      Z        X      Y      Z        X      Y      Z
 C         -0.007 -0.012  0.005   -0.001  0.000  0.001   -0.046 -0.030  0.014
 C          0.072  0.026  0.015    0.000  0.000  0.000   -0.001  0.000 -0.001
 C         -0.011  0.008 -0.004    0.000  0.000  0.001    0.007 -0.003  0.000
 C         -0.030  0.458 -0.202    0.034 -0.002 -0.073    0.000  0.000  0.001
 C          0.021 -0.039  0.019   -0.001 -0.001  0.003    0.000  0.000  0.000
 O         -0.050 -0.284  0.118    0.000  0.004 -0.002    0.000  0.000  0.000
 H         -0.001 -0.080  0.015    0.007  0.001  0.004    0.780  0.130  0.182
 H         -0.049  0.061  0.012   -0.003 -0.003 -0.008   -0.058  0.016 -0.475
 H         -0.037  0.013 -0.080    0.002 -0.002  0.000   -0.172  0.212  0.123
 H         -0.084 -0.019 -0.045    0.005  0.001 -0.013   -0.001 -0.003  0.005
 H         -0.077 -0.031 -0.012   -0.001  0.002 -0.010   -0.004 -0.004  0.062
 H         -0.053 -0.035  0.097    0.005  0.000  0.005   -0.104 -0.004 -0.048
 H          0.119 -0.064 -0.034    0.000 -0.001  0.000    0.022  0.037 -0.011
 H          0.362 -0.420 -0.006   -0.407 -0.047  0.907    0.003  0.001 -0.008
 H         -0.215  0.205 -0.003   -0.001 -0.002 -0.015    0.000  0.000  0.004
 H          0.291 -0.156  0.028    0.023  0.032 -0.021    0.000  0.001  0.001
 H          0.009 -0.218  0.139   -0.018 -0.006 -0.006    0.000  0.001  0.000
 TransDip   0.039  0.274 -0.054    0.128  0.001 -0.244   -0.081 -0.082  0.024

 Mode:                37                     38                     39
 Frequency:      2961.32                2986.03                3006.24
 Force Cnst:      5.3839                 5.4398                 5.8242
 Red. Mass:       1.0420                 1.0355                 1.0938
 IR Active:          YES                    YES                    YES
 IR Intens:       23.941                  7.144                 11.671
 Raman Active:       YES                    YES                    YES
               X      Y      Z        X      Y      Z        X      Y      Z
 C         -0.006 -0.004  0.003    0.001 -0.001  0.000   -0.056  0.009 -0.068
 C         -0.001 -0.001 -0.001    0.000  0.000  0.000   -0.002 -0.001  0.002
 C         -0.051  0.021  0.006    0.001  0.000  0.000    0.000  0.000  0.001
 C          0.000  0.000  0.001    0.002 -0.001 -0.002    0.000  0.000  0.000
 C         -0.001  0.001  0.000   -0.037  0.031  0.013    0.000  0.000  0.001
 O          0.000  0.000  0.000    0.000  0.000  0.000    0.000  0.000  0.000
 H          0.104  0.019  0.024   -0.004 -0.002 -0.001    0.518  0.092  0.101
 H         -0.008  0.004 -0.071    0.000  0.000  0.000    0.061 -0.036  0.811
 H         -0.024  0.032  0.018   -0.007  0.011  0.007    0.096 -0.148 -0.098
 H         -0.001  0.002  0.004    0.000  0.000 -0.002    0.008  0.000 -0.034
 H          0.040  0.019 -0.485    0.000  0.000  0.005    0.000  0.002 -0.010
 H          0.725  0.014  0.328   -0.014  0.000 -0.006    0.001 -0.001  0.000
 H         -0.155 -0.277  0.081    0.002  0.004 -0.001   -0.003 -0.005  0.003
 H          0.004  0.001 -0.010   -0.011  0.002  0.021    0.002  0.001  0.002
 H          0.000 -0.001 -0.009   -0.004 -0.027 -0.553    0.000 -0.001 -0.010
 H         -0.004 -0.009  0.004   -0.188 -0.414  0.193    0.003  0.004 -0.003
 H          0.009  0.002  0.003    0.626  0.088  0.213    0.004  0.000  0.002
 TransDip  -0.153  0.023  0.026   -0.060  0.061  0.000   -0.063  0.030 -0.085

 Mode:                40                     41                     42
 Frequency:      3020.03                3055.81                3068.30
 Force Cnst:      5.8835                 6.0494                 6.0888
 Red. Mass:       1.0949                 1.0995                 1.0977
 IR Active:          YES                    YES                    YES
 IR Intens:       12.953                  7.762                 11.148
 Raman Active:       YES                    YES                    YES
               X      Y      Z        X      Y      Z        X      Y      Z
 C         -0.001  0.000  0.000   -0.005  0.005  0.005    0.046 -0.050 -0.050
 C         -0.003  0.000  0.005    0.000  0.000 -0.001   -0.004  0.000  0.013
 C         -0.040 -0.013 -0.078    0.000  0.000 -0.001    0.005  0.006 -0.003
 C          0.000  0.000  0.000   -0.002  0.000 -0.001    0.001  0.000 -0.002
 C          0.000  0.000  0.000   -0.066 -0.036 -0.051    0.002  0.010 -0.025
 O          0.000  0.000  0.000    0.000  0.000  0.000    0.000  0.000  0.000
 H          0.010  0.002  0.001    0.012  0.004  0.004   -0.121 -0.033 -0.042
 H          0.000 -0.003  0.002   -0.004  0.002 -0.030    0.038 -0.020  0.289
 H          0.000  0.000  0.002    0.052 -0.069 -0.040   -0.476  0.642  0.358
 H          0.018  0.004 -0.063   -0.003 -0.001  0.014    0.053  0.006 -0.168
 H         -0.099 -0.033  0.794   -0.001  0.000  0.005   -0.002  0.001  0.021
 H          0.511  0.008  0.211    0.003  0.000  0.001   -0.019  0.001 -0.009
 H          0.078  0.172 -0.069   -0.003 -0.005  0.001   -0.038 -0.073  0.022
 H          0.001 -0.001  0.005   -0.004  0.000  0.005   -0.007  0.000  0.014
 H          0.000  0.000 -0.002   -0.019  0.025  0.550   -0.002  0.014  0.230
 H         -0.002 -0.005  0.002    0.128  0.322 -0.160   -0.062 -0.143  0.063
 H          0.000  0.000  0.000    0.690  0.083  0.222    0.044  0.009  0.008
 TransDip  -0.037 -0.012 -0.109   -0.065 -0.045 -0.042    0.045 -0.060 -0.076

 Mode:                43                     44                     45
 Frequency:      3078.20                3082.15                3107.48
 Force Cnst:      6.1338                 6.1723                 6.1998
 Red. Mass:       1.0987                 1.1028                 1.0897
 IR Active:          YES                    YES                    YES
 IR Intens:        2.480                 14.525                 15.860
 Raman Active:       YES                    YES                    YES
               X      Y      Z        X      Y      Z        X      Y      Z
 C          0.004 -0.005 -0.006    0.014 -0.015 -0.014    0.006 -0.010 -0.011
 C          0.003  0.000 -0.011   -0.001  0.000  0.003    0.028  0.004 -0.079
 C         -0.047 -0.065  0.039   -0.003 -0.003  0.002    0.004  0.010 -0.011
 C          0.000 -0.001  0.000   -0.002  0.000  0.004    0.000  0.000 -0.001
 C          0.001  0.003 -0.006   -0.028 -0.050  0.068    0.000  0.000  0.000
 O          0.000  0.000  0.000    0.000  0.000  0.000    0.000  0.000  0.000
 H         -0.009 -0.002 -0.003   -0.040 -0.009 -0.013   -0.008 -0.003 -0.005
 H          0.004 -0.001  0.037    0.012 -0.006  0.075    0.008 -0.007  0.082
 H         -0.047  0.065  0.035   -0.144  0.191  0.107   -0.077  0.111  0.058
 H         -0.041 -0.008  0.130    0.010  0.001 -0.035   -0.305 -0.043  0.918
 H          0.026  0.004 -0.319    0.002  0.000 -0.018   -0.012  0.000  0.102
 H          0.140 -0.008  0.075    0.009  0.000  0.005    0.008  0.000  0.001
 H          0.404  0.785 -0.225    0.021  0.043 -0.012   -0.052 -0.111  0.029
 H         -0.001  0.000  0.002    0.017  0.000 -0.035   -0.004  0.000  0.015
 H          0.000  0.004  0.056   -0.002 -0.041 -0.570   -0.002  0.001  0.002
 H         -0.020 -0.046  0.021    0.279  0.644 -0.290    0.000 -0.001  0.000
 H          0.005  0.002  0.000    0.067 -0.001  0.040    0.001  0.000  0.001
 TransDip   0.011 -0.047  0.014   -0.017 -0.096  0.074    0.066 -0.010 -0.108

 STANDARD THERMODYNAMIC QUANTITIES AT   298.15 K  AND     1.00 ATM

   This Molecule has  1 Imaginary Frequencies
   Zero point vibrational energy:       91.312 kcal/mol

   Atom    1 Element C  Has Mass   12.00000
   Atom    2 Element C  Has Mass   12.00000
   Atom    3 Element C  Has Mass   12.00000
   Atom    4 Element C  Has Mass   12.00000
   Atom    5 Element C  Has Mass   12.00000
   Atom    6 Element O  Has Mass   15.99491
   Atom    7 Element H  Has Mass    1.00783
   Atom    8 Element H  Has Mass    1.00783
   Atom    9 Element H  Has Mass    1.00783
   Atom   10 Element H  Has Mass    1.00783
   Atom   11 Element H  Has Mass    1.00783
   Atom   12 Element H  Has Mass    1.00783
   Atom   13 Element H  Has Mass    1.00783
   Atom   14 Element H  Has Mass    1.00783
   Atom   15 Element H  Has Mass    1.00783
   Atom   16 Element H  Has Mass    1.00783
   Atom   17 Element H  Has Mass    1.00783
   Molecular Mass:    87.081040 amu
   Principal axes and moments of inertia in amu*Bohr^2:
                             1           2           3
    Eigenvalues --      415.55105   653.30006   976.44985
          X               0.99557    -0.09375    -0.00664
          Y               0.09378     0.99559     0.00366
          Z               0.00626    -0.00427     0.99997
   Rotational Symmetry Number is   1
   The Molecule is an Asymmetric Top
   Translational Enthalpy:        0.889 kcal/mol
   Rotational Enthalpy:           0.889 kcal/mol
   Vibrational Enthalpy:         94.782 kcal/mol
   gas constant (RT):             0.592 kcal/mol
   Translational Entropy:        39.306  cal/mol.K
   Rotational Entropy:           27.074  cal/mol.K
   Vibrational Entropy:          21.277  cal/mol.K

   Total Enthalpy:               97.152 kcal/mol
   Total Entropy:                87.657  cal/mol.K
Archival summary:
1\1\node11\FREQ\ProcedureUnspecified\BasisUnspecified\1511(2)\edames\SatJul1910:52:332014SatJul1910:52:332014\0\\#,FREQ,ProcedureUnspecified,BasisUnspecified,\\0,2\O\C,1,1.2417\H,2,1.11516,1,119.097\C,2,1.52171,1,120.638,3,153.901,0\H,4,1.09538,2,112.181,1,173.729,0\H,4,1.09649,2,110.294,1,50.5476,0\H,4,1.09818,2,107.862,1,-67.0934,0\C,2,2.06648,1,101.185,3,-94.6384,0\H,8,1.09213,2,94.7714,1,-60.4171,0\C,8,1.49946,2,101.974,1,57.1261,0\H,10,1.09443,8,111.08,2,-53.1391,0\H,10,1.09938,8,110.823,2,67.9176,0\H,10,1.10215,8,109.951,2,-173.607,0\C,8,1.50165,2,106.073,1,-179.624,0\H,14,1.09469,8,112.707,2,70.3665,0\H,14,1.10015,8,111.098,2,-52.199,0\H,14,1.1029,8,109.462,2,-169.866,0\\\@

 Total job time:  110772.08s(wall), 109973.37s(cpu) 
 Sat Jul 19 10:52:33 2014

        *************************************************************
        *                                                           *
        *  Thank you very much for using Q-Chem.  Have a nice day.  *
        *                                                           *
        *************************************************************


0 sent ACK to 0 
now end server 0 ... 
cleanup process ... done
remove work dirs /scratch/edames/qchem27044.0 -- /scratch/edames/qchem27044.7
rm -rf /scratch/edames/qchem27044.0
rm -rf /scratch/edames/qchem27044.1
rm -rf /scratch/edames/qchem27044.2
rm -rf /scratch/edames/qchem27044.3
rm -rf /scratch/edames/qchem27044.4
rm -rf /scratch/edames/qchem27044.5
rm -rf /scratch/edames/qchem27044.6
rm -rf /scratch/edames/qchem27044.7
rm -rf /scratch/edames/qchem27044
