 Entering Gaussian System, Link 0=/Local/ce_dana/g09/g09
 Initial command:
 /Local/ce_dana/g09/l1.exe "/storage/ce_dana/alongd/scratch/g09/Gau-41851.inp" -scrdir="/storage/ce_dana/alongd/scratch/g09/"
 Entering Link 1 = /Local/ce_dana/g09/l1.exe PID=     41852.
  
 Copyright (c) 1988,1990,1992,1993,1995,1998,2003,2009,2013,
            Gaussian, Inc.  All Rights Reserved.
  
 This is part of the Gaussian(R) 09 program.  It is based on
 the Gaussian(R) 03 system (copyright 2003, Gaussian, Inc.),
 the Gaussian(R) 98 system (copyright 1998, Gaussian, Inc.),
 the Gaussian(R) 94 system (copyright 1995, Gaussian, Inc.),
 the Gaussian 92(TM) system (copyright 1992, Gaussian, Inc.),
 the Gaussian 90(TM) system (copyright 1990, Gaussian, Inc.),
 the Gaussian 88(TM) system (copyright 1988, Gaussian, Inc.),
 the Gaussian 86(TM) system (copyright 1986, Carnegie Mellon
 University), and the Gaussian 82(TM) system (copyright 1983,
 Carnegie Mellon University). Gaussian is a federally registered
 trademark of Gaussian, Inc.
  
 This software contains proprietary and confidential information,
 including trade secrets, belonging to Gaussian, Inc.
  
 This software is provided under written license and may be
 used, copied, transmitted, or stored only in accord with that
 written license.
  
 The following legend is applicable only to US Government
 contracts under FAR:
  
                    RESTRICTED RIGHTS LEGEND
  
 Use, reproduction and disclosure by the US Government is
 subject to restrictions as set forth in subparagraphs (a)
 and (c) of the Commercial Computer Software - Restricted
 Rights clause in FAR 52.227-19.
  
 Gaussian, Inc.
 340 Quinnipiac St., Bldg. 40, Wallingford CT 06492
  
  
 ---------------------------------------------------------------
 Warning -- This program may not be used in any manner that
 competes with the business of Gaussian, Inc. or will provide
 assistance to any competitor of Gaussian, Inc.  The licensee
 of this program is prohibited from giving any competitor of
 Gaussian, Inc. access to this program.  By using this program,
 the user acknowledges that Gaussian, Inc. is engaged in the
 business of creating and licensing software in the field of
 computational chemistry and represents and warrants to the
 licensee that it is not a competitor of Gaussian, Inc. and that
 it will not use this program in any manner prohibited above.
 ---------------------------------------------------------------
  

 Cite this work as:
 Gaussian 09, Revision D.01,
 M. J. Frisch, G. W. Trucks, H. B. Schlegel, G. E. Scuseria, 
 M. A. Robb, J. R. Cheeseman, G. Scalmani, V. Barone, B. Mennucci, 
 G. A. Petersson, H. Nakatsuji, M. Caricato, X. Li, H. P. Hratchian, 
 A. F. Izmaylov, J. Bloino, G. Zheng, J. L. Sonnenberg, M. Hada, 
 M. Ehara, K. Toyota, R. Fukuda, J. Hasegawa, M. Ishida, T. Nakajima, 
 Y. Honda, O. Kitao, H. Nakai, T. Vreven, J. A. Montgomery, Jr., 
 J. E. Peralta, F. Ogliaro, M. Bearpark, J. J. Heyd, E. Brothers, 
 K. N. Kudin, V. N. Staroverov, T. Keith, R. Kobayashi, J. Normand, 
 K. Raghavachari, A. Rendell, J. C. Burant, S. S. Iyengar, J. Tomasi, 
 M. Cossi, N. Rega, J. M. Millam, M. Klene, J. E. Knox, J. B. Cross, 
 V. Bakken, C. Adamo, J. Jaramillo, R. Gomperts, R. E. Stratmann, 
 O. Yazyev, A. J. Austin, R. Cammi, C. Pomelli, J. W. Ochterski, 
 R. L. Martin, K. Morokuma, V. G. Zakrzewski, G. A. Voth, 
 P. Salvador, J. J. Dannenberg, S. Dapprich, A. D. Daniels, 
 O. Farkas, J. B. Foresman, J. V. Ortiz, J. Cioslowski, 
 and D. J. Fox, Gaussian, Inc., Wallingford CT, 2013.
 
 ******************************************
 Gaussian 09:  ES64L-G09RevD.01 24-Apr-2013
                12-Nov-2022 
 ******************************************
 %chk=check.chk
 %mem=7168mb
 %NProcShared=10
 Will use up to   10 processors via shared memory.
 ----------------------------------------------------------------------
 #P guess=read b2plypd3/def2tzvp freq IOp(7/33=1) scf=(tight, direct) i
 ntegral=(grid=ultrafine, Acc2E=12) IOp(2/9=2000) scf=xqc
 ----------------------------------------------------------------------
 1/10=4,30=1,38=1/1,3;
 2/9=2000,12=2,17=6,18=5,40=1/2;
 3/5=44,7=101,11=9,16=1,25=1,30=1,71=2,74=-60,75=-5,116=-2,140=1/1,2,3;
 4/5=1/1;
 5/5=2,8=3,13=1,32=2,38=6,87=12,98=1/2,8;
 8/6=3,8=1,10=1,19=11,30=-1,87=12/1;
 9/15=3,16=-3,87=12/6;
 11/6=1,8=1,15=11,17=12,24=-1,27=1,28=-2,29=300,32=6,42=3,87=12/1,2,10;
 10/6=2,21=1,87=12/2;
 8/6=4,8=1,10=1,19=11,30=-1,87=12/11,4;
 10/5=1,20=4,87=12/2;
 11/12=2,14=11,16=1,17=2,28=-2,42=3,87=12/2,10,12;
 6/7=2,8=2,9=2,10=2/1;
 7/8=1,10=1,12=2,25=1,33=1,44=2,87=12/1,2,3,16;
 1/10=4,30=1/3;
 99//99;
 Leave Link    1 at Sat Nov 12 21:51:17 2022, MaxMem=   939524096 cpu:         0.1
 (Enter /Local/ce_dana/g09/l101.exe)
 -------
 Ethynol
 -------
 Symbolic Z-matrix:
 Charge =  0 Multiplicity = 1
 C                     1.11286  -0.05358  -0.08835 
 C                    -0.07375   0.13732  -0.11674 
 O                    -1.35426   0.41332  -0.10446 
 H                     2.15805  -0.22791  -0.06713 
 H                    -1.8429   -0.26915  -0.58285 
 
 NAtoms=      5 NQM=        5 NQMF=       0 NMMI=      0 NMMIF=      0
                NMic=       0 NMicF=      0.
                    Isotopes and Nuclear Properties:
 (Nuclear quadrupole moments (NQMom) in fm**2, nuclear magnetic moments (NMagM)
  in nuclear magnetons)

  Atom         1           2           3           4           5
 IAtWgt=          12          12          16           1           1
 AtmWgt=  12.0000000  12.0000000  15.9949146   1.0078250   1.0078250
 NucSpn=           0           0           0           1           1
 AtZEff=   0.0000000   0.0000000   0.0000000   0.0000000   0.0000000
 NQMom=    0.0000000   0.0000000   0.0000000   0.0000000   0.0000000
 NMagM=    0.0000000   0.0000000   0.0000000   2.7928460   2.7928460
 AtZNuc=   6.0000000   6.0000000   8.0000000   1.0000000   1.0000000
 Leave Link  101 at Sat Nov 12 21:51:18 2022, MaxMem=   939524096 cpu:         0.2
 (Enter /Local/ce_dana/g09/l103.exe)

 GradGradGradGradGradGradGradGradGradGradGradGradGradGradGradGradGradGrad
 Berny optimization.
 Initialization pass.
 Trust Radius=3.00D-01 FncErr=1.00D-07 GrdErr=1.00D-07
 Number of steps in this run=      2 maximum allowed number of steps=      2.
 GradGradGradGradGradGradGradGradGradGradGradGradGradGradGradGradGradGrad

 Leave Link  103 at Sat Nov 12 21:51:18 2022, MaxMem=   939524096 cpu:         0.0
 (Enter /Local/ce_dana/g09/l202.exe)
                          Input orientation:                          
 ---------------------------------------------------------------------
 Center     Atomic      Atomic             Coordinates (Angstroms)
 Number     Number       Type             X           Y           Z
 ---------------------------------------------------------------------
      1          6           0        1.112858   -0.053580   -0.088347
      2          6           0       -0.073752    0.137316   -0.116744
      3          8           0       -1.354263    0.413319   -0.104463
      4          1           0        2.158052   -0.227908   -0.067125
      5          1           0       -1.842897   -0.269149   -0.582852
 ---------------------------------------------------------------------
                    Distance matrix (angstroms):
                    1          2          3          4          5
     1  C    0.000000
     2  C    1.202203   0.000000
     3  O    2.510964   1.309976   0.000000
     4  H    1.059845   2.262034   3.570563   0.000000
     5  H    3.004579   1.874125   0.966117   4.034262   0.000000
 Stoichiometry    C2H2O
 Framework group  CS[SG(C2H2O)]
 Deg. of freedom     7
 Full point group                 CS      NOp   2
 Largest Abelian subgroup         CS      NOp   2
 Largest concise Abelian subgroup C1      NOp   1
                         Standard orientation:                         
 ---------------------------------------------------------------------
 Center     Atomic      Atomic             Coordinates (Angstroms)
 Number     Number       Type             X           Y           Z
 ---------------------------------------------------------------------
      1          6           0        0.000000    1.323902    0.000000
      2          6           0        0.006595    0.121717    0.000000
      3          8           0        0.095256   -1.185255   -0.000000
      4          1           0       -0.013011    2.383667    0.000000
      5          1           0       -0.788609   -1.575338   -0.000000
 ---------------------------------------------------------------------
 Rotational constants (GHZ):    672.5683016      9.7377432      9.5987680
 Leave Link  202 at Sat Nov 12 21:51:18 2022, MaxMem=   939524096 cpu:         0.0
 (Enter /Local/ce_dana/g09/l301.exe)
 Standard basis: def2TZVP (5D, 7F)
 Ernie: Thresh=  0.10000D-02 Tol=  0.10000D-05 Strict=F.
 There are    85 symmetry adapted cartesian basis functions of A'  symmetry.
 There are    35 symmetry adapted cartesian basis functions of A"  symmetry.
 There are    73 symmetry adapted basis functions of A'  symmetry.
 There are    32 symmetry adapted basis functions of A"  symmetry.
   105 basis functions,   169 primitive gaussians,   120 cartesian basis functions
    11 alpha electrons       11 beta electrons
       nuclear repulsion energy        58.2011420712 Hartrees.
 IExCor=  419 DFT=T Ex+Corr=B2PLYPD3 ExCW=0 ScaHFX=  0.530000
 ScaDFX=  0.470000  0.470000  0.730000  0.730000 ScalE2=  0.270000  0.270000
 IRadAn=      5 IRanWt=     -1 IRanGd=            0 ICorTp=0 IEmpDi=141
 NAtoms=    5 NActive=    5 NUniq=    5 SFac= 1.00D+00 NAtFMM=   60 NAOKFM=F Big=F
 Integral buffers will be    131072 words long.
 Regular integral format.
 Two-electron integral symmetry is turned on.
 R6Disp:  Grimme-D3(BJ) Dispersion energy=       -0.0015313455 Hartrees.
 Nuclear repulsion after empirical dispersion term =       58.1996107258 Hartrees.
 Leave Link  301 at Sat Nov 12 21:51:19 2022, MaxMem=   939524096 cpu:         0.1
 (Enter /Local/ce_dana/g09/l302.exe)
 NPDir=0 NMtPBC=     1 NCelOv=     1 NCel=       1 NClECP=     1 NCelD=      1
         NCelK=      1 NCelE2=     1 NClLst=     1 CellRange=     0.0.
 One-electron integrals computed using PRISM.
   1 Symmetry operations used in ECPInt.
 ECPInt:  NShTT=     861 NPrTT=    2700 LenC2=     859 LenP2D=    2393.
 LDataN:  DoStor=T MaxTD1= 6 Len=  172
 NBasis=   105 RedAO= T EigKep=  3.22D-05  NBF=    73    32
 NBsUse=   105 1.00D-06 EigRej= -1.00D+00 NBFU=    73    32
 Precomputing XC quadrature grid using
 IXCGrd= 4 IRadAn=           5 IRanWt=          -1 IRanGd=           0 AccXCQ= 0.00D+00.
 Generated NRdTot=       0 NPtTot=           0 NUsed=           0 NTot=          32
 NSgBfM=   120   120   120   120   120 MxSgAt=     5 MxSgA2=     5.
 Leave Link  302 at Sat Nov 12 21:51:20 2022, MaxMem=   939524096 cpu:         1.7
 (Enter /Local/ce_dana/g09/l303.exe)
 DipDrv:  MaxL=1.
 Leave Link  303 at Sat Nov 12 21:51:20 2022, MaxMem=   939524096 cpu:         0.1
 (Enter /Local/ce_dana/g09/l401.exe)
 Initial guess from the checkpoint file:  "check.chk"
 B after Tr=     0.000000    0.000000    0.000000
         Rot=    0.000000    0.999634   -0.027064    0.000000 Ang= 180.00 deg.
 Guess basis will be translated and rotated to current coordinates.
 JPrj=2 DoOrth=T DoCkMO=T.
 Initial guess orbital symmetries:
       Occupied  (A') (A') (A') (A') (A') (A') (A') (A') (A") (A')
                 (A")
       Virtual   (A') (A') (A') (A") (A') (A') (A") (A') (A') (A')
                 (A") (A') (A') (A') (A') (A") (A') (A") (A') (A')
                 (A') (A') (A") (A") (A') (A') (A') (A') (A") (A')
                 (A") (A") (A') (A') (A') (A") (A') (A') (A') (A')
                 (A") (A') (A") (A') (A') (A") (A') (A') (A") (A')
                 (A") (A') (A') (A") (A') (A') (A') (A") (A') (A")
                 (A") (A') (A") (A') (A") (A') (A') (A') (A') (A")
                 (A') (A") (A') (A') (A') (A") (A') (A') (A") (A')
                 (A') (A") (A') (A") (A') (A') (A") (A') (A") (A')
                 (A') (A') (A') (A')
 The electronic state of the initial guess is 1-A'.
 Leave Link  401 at Sat Nov 12 21:51:21 2022, MaxMem=   939524096 cpu:         0.4
 (Enter /Local/ce_dana/g09/l502.exe)
 Closed shell SCF:
 Using DIIS extrapolation, IDIIS=  1040.
 Integral symmetry usage will be decided dynamically.
 Keep R1 ints in memory in symmetry-blocked form, NReq=23495709.
 IVT=       51263 IEndB=       51263 NGot=   939524096 MDV=   931515888
 LenX=   931515888 LenY=   931501047
 Requested convergence on RMS density matrix=1.00D-08 within  64 cycles.
 Requested convergence on MAX density matrix=1.00D-06.
 Requested convergence on             energy=1.00D-06.
 No special actions if energy rises.
 FoFCou: FMM=F IPFlag=           0 FMFlag=           0 FMFlg1=           0
         NFxFlg=           0 DoJE=F BraDBF=F KetDBF=F FulRan=T
         wScrn=  0.000000 ICntrl=     600 IOpCl=  0 I1Cent=           0 NGrid=           0
         NMat0=    1 NMatS0=   5565 NMatT0=    0 NMatD0=    1 NMtDS0=    0 NMtDT0=    0
 Petite list used in FoFCou.

 Cycle   1  Pass 1  IDiag  1:
 E= -152.314385078093    
 DIIS: error= 1.01D-07 at cycle   1 NSaved=   1.
 NSaved= 1 IEnMin= 1 EnMin= -152.314385078093     IErMin= 1 ErrMin= 1.01D-07
 ErrMax= 1.01D-07  0.00D+00 EMaxC= 1.00D-01 BMatC= 1.32D-12 BMatP= 1.32D-12
 IDIUse=1 WtCom= 1.00D+00 WtEn= 0.00D+00
 Coeff-Com:  0.100D+01
 Coeff:      0.100D+01
 Gap=     0.358 Goal=   None    Shift=    0.000
 RMSDP=4.28D-08 MaxDP=9.42D-07              OVMax= 3.18D-07

 Cycle   2  Pass 1  IDiag  1:
 E= -152.314385078095     Delta-E=       -0.000000000002 Rises=F Damp=F
 DIIS: error= 2.70D-08 at cycle   2 NSaved=   2.
 NSaved= 2 IEnMin= 2 EnMin= -152.314385078095     IErMin= 2 ErrMin= 2.70D-08
 ErrMax= 2.70D-08  0.00D+00 EMaxC= 1.00D-01 BMatC= 8.09D-14 BMatP= 1.32D-12
 IDIUse=1 WtCom= 1.00D+00 WtEn= 0.00D+00
 Coeff-Com:  0.706D-01 0.929D+00
 Coeff:      0.706D-01 0.929D+00
 Gap=     0.358 Goal=   None    Shift=    0.000
 RMSDP=8.59D-09 MaxDP=2.04D-07 DE=-2.19D-12 OVMax= 1.63D-07

 SCF Done:  E(RB2PLYPD3) =  -152.314385078     A.U. after    2 cycles
            NFock=  2  Conv=0.86D-08     -V/T= 2.0035
 KE= 1.517839166079D+02 PE=-4.734315104374D+02 EE= 1.111335980257D+02
 Leave Link  502 at Sat Nov 12 21:51:24 2022, MaxMem=   939524096 cpu:         7.1
 (Enter /Local/ce_dana/g09/l508.exe)
 QCSCF skips out because SCF is already converged.
 Leave Link  508 at Sat Nov 12 21:51:24 2022, MaxMem=   939524096 cpu:         0.0
 (Enter /Local/ce_dana/g09/l801.exe)
 DoSCS=T DFT=T ScalE2(SS,OS)=  0.270000  0.270000
 ExpMin= 9.52D-02 ExpMax= 2.70D+04 ExpMxC= 9.22D+02 IAcc=3 IRadAn=         5 AccDes= 0.00D+00
 HarFok:  IExCor=  205 AccDes= 0.00D+00 IRadAn=         5 IDoV=-2 UseB2=F ITyADJ=14
 ICtDFT= 12500011 ScaDFX=  1.000000  1.000000  1.000000  1.000000
 Largest valence mixing into a core orbital is  8.87D-05
 Largest core mixing into a valence orbital is  2.11D-05
 Range of M.O.s used for correlation:     4   105
 NBasis=   105 NAE=    11 NBE=    11 NFC=     3 NFV=     0
 NROrb=    102 NOA=     8 NOB=     8 NVA=    94 NVB=    94

 **** Warning!!: The largest alpha MO coefficient is  0.65046363D+02

 Leave Link  801 at Sat Nov 12 21:51:24 2022, MaxMem=   939524096 cpu:         0.6
 (Enter /Local/ce_dana/g09/l906.exe)
 DoSCS=T DFT=T ScalE2(SS,OS)=  0.270000  0.270000
 Frozen-core derivative calculation, NFC=   3 NFV=   0.
 FulOut=F Deriv=T AODrv=T NAtomX=     5
   MMem=           0  MDisk=           8 MDiskD=           8
  W3Min=      138600 MinDsk=      548180 NBas6D=         120
 NBas2D=        7518    NTT=        7260    LW2=     7400000
    MDV=   939364465 MDiskM=       39056 NBas2p=        7515
 Disk-based method using ON**2 memory for  8 occupieds at a time.
 Permanent disk used for amplitudes=     1309561 words.
 Estimated scratch disk usage=    26001453 words.
 IMap=   1   2   3   4   5   6   7   8   9  10  11
 Actual    scratch disk usage=    25228845 words.
 JobTyp=1 Pass  1:  I=   4 to  11 NPSUse= 10 ParTrn=T ParDer=T DoDerP=T.
 (rs|ai) integrals will be sorted in core.
 Spin components of T(2) and E(2):
     alpha-alpha T2 =       0.3490797643D-01 E2=     -0.2251207338D-01
     alpha-beta  T2 =       0.1953326768D+00 E2=     -0.1315676111D+00
     beta-beta   T2 =       0.3490797643D-01 E2=     -0.2251207338D-01
 The integrals were generated   1 times.
 E2(B2PLYPD3) =    -0.1765917578D+00 E(B2PLYPD3) =    -0.15249097683594D+03
 Leave Link  906 at Sat Nov 12 21:51:42 2022, MaxMem=   939524096 cpu:       139.7
 (Enter /Local/ce_dana/g09/l1101.exe)
 Using compressed Sx but separate Hx and Fx, NAtomX=     5.
 Will process      6 centers per pass.
   2 Symmetry operations used in ECPInt.
 ECPInt:  NShTT=     861 NPrTT=    2700 LenC2=     859 LenP2D=    2393.
 LDataN:  DoStor=T MaxTD1= 7 Len=  274
 R6Disp: Adding Grimme-D3(BJ) dispersion energy 1st derivatives to the gradient.
 Leave Link 1101 at Sat Nov 12 21:51:43 2022, MaxMem=   939524096 cpu:         4.3
 (Enter /Local/ce_dana/g09/l1102.exe)
 Leave Link 1102 at Sat Nov 12 21:51:43 2022, MaxMem=   939524096 cpu:         0.0
 (Enter /Local/ce_dana/g09/l1110.exe)
 Forming Gx(P) for the SCF density, NAtomX=     5.
 Integral derivatives from FoFJK, PRISM(SPDF).
 Do as many integral derivatives as possible in FoFJK.
 G2DrvN: MDV=     939523952.
 G2DrvN: will do     6 centers at a time, making    1 passes.
 Calling FoFCou, ICntrl=  3107 FMM=F I1Cent=   0 AccDes= 1.00D-12.
 FoFJK:  IHMeth= 1 ICntrl=    3107 DoSepK=F KAlg= 0 I1Cent=   0 FoldK=F
 IRaf=         0 NMat=   1 IRICut=       1 DoRegI=T DoRafI=F ISym2E= 1.
 FoFCou: FMM=F IPFlag=           0 FMFlag=      100000 FMFlg1=           0
         NFxFlg=           0 DoJE=F BraDBF=F KetDBF=F FulRan=T
         wScrn=  0.000000 ICntrl=    3107 IOpCl=  0 I1Cent=           0 NGrid=           0
         NMat0=    1 NMatS0=      1 NMatT0=    0 NMatD0=    1 NMtDS0=    0 NMtDT0=    0
 Petite list used in FoFCou.
 End of G2Drv F.D. properties file   721 does not exist.
 End of G2Drv F.D. properties file   722 does not exist.
 End of G2Drv F.D. properties file   788 does not exist.
 Leave Link 1110 at Sat Nov 12 21:51:45 2022, MaxMem=   939524096 cpu:        21.2
 (Enter /Local/ce_dana/g09/l1002.exe)
 Minotr:  Closed shell wavefunction.
          IDoAtm=11111
          Frozen-core window.
          Direct CPHF calculation.
          Differentiating once with respect to electric field.
                with respect to dipole field.
          Differentiating once with respect to nuclear coordinates.
          Requested convergence is 1.0D-08 RMS, and 1.0D-07 maximum.
          Secondary convergence is 1.0D-12 RMS, and 1.0D-12 maximum.
          NewPWx=T KeepS1=T KeepF1=T KeepIn=T MapXYZ=F SortEE=F KeepMc=T.
          MDV=     939523940 using IRadAn=       1.
 Generate precomputed XC quadrature information.
 Keep R1 ints in memory in symmetry-blocked form, NReq=23447109.
 FoFCou: FMM=F IPFlag=           0 FMFlag=           0 FMFlg1=           0
         NFxFlg=           0 DoJE=F BraDBF=F KetDBF=F FulRan=T
         wScrn=  0.000000 ICntrl=     600 IOpCl=  0 I1Cent=           0 NGrid=           0
         NMat0=    1 NMatS0=   5565 NMatT0=    0 NMatD0=    1 NMtDS0=    0 NMtDT0=    0
 Petite list used in FoFCou.
          Solving linear equations simultaneously, MaxMat=       0.
          There are    18 degrees of freedom in the 1st order CPHF.  IDoFFX=6 NUNeed=    18.
     15 vectors produced by pass  0 Test12= 5.74D-15 5.56D-09 XBig12= 2.44D+01 3.22D+00.
 AX will form    15 AO Fock derivatives at one time.
     15 vectors produced by pass  1 Test12= 5.74D-15 5.56D-09 XBig12= 4.42D+00 5.90D-01.
     15 vectors produced by pass  2 Test12= 5.74D-15 5.56D-09 XBig12= 9.37D-02 7.42D-02.
     15 vectors produced by pass  3 Test12= 5.74D-15 5.56D-09 XBig12= 6.93D-04 6.12D-03.
     15 vectors produced by pass  4 Test12= 5.74D-15 5.56D-09 XBig12= 3.30D-06 4.75D-04.
     15 vectors produced by pass  5 Test12= 5.74D-15 5.56D-09 XBig12= 1.30D-08 2.71D-05.
     11 vectors produced by pass  6 Test12= 5.74D-15 5.56D-09 XBig12= 3.76D-11 1.15D-06.
      3 vectors produced by pass  7 Test12= 5.74D-15 5.56D-09 XBig12= 1.34D-13 7.41D-08.
 InvSVY:  IOpt=1 It=  1 EMax= 1.11D-15
 Solved reduced A of dimension   104 with    15 vectors.
 FullF1:  Do perturbations    1 to    18.
 Saving first derivative matrices.
 End of Minotr F.D. properties file   721 does not exist.
 End of Minotr F.D. properties file   722 does not exist.
 End of Minotr F.D. properties file   788 does not exist.
 Leave Link 1002 at Sat Nov 12 21:51:50 2022, MaxMem=   939524096 cpu:        45.7
 (Enter /Local/ce_dana/g09/l811.exe)
 MDV=   939524096.
 DoSCS=T DFT=T ScalE2(SS,OS)=  0.270000  0.270000
 Form MO integral derivatives with frozen-active canonical formalism.
 MOERI=1 MOERIx=1 NAtoms=     5 NAtomX=     5.
 Discarding MO integrals.
 MO basis two electron integral derivatives will not be stored on disk.
 IAlg= 3 DoFC=T DoPWx=T Debug=F.
 Frozen-core window:  NFC=   3 NFV=   0.
 Reordered first order wavefunction length =      2138312
 In DefCFB: NBatch=  1 ICI= 11 ICA= 94 LFMax= 47
            Large arrays: LIAPS=    52113600 LIARS=    31268160 words.
 In StABat: MaxSiz= 36 MinSiz= 12 NAtomB=  4
 DoIAMN: NPSUse= 10.
 Leave Link  811 at Sat Nov 12 21:52:06 2022, MaxMem=   939524096 cpu:        54.0
 (Enter /Local/ce_dana/g09/l804.exe)
 Frozen-core window:  NFC=   3 NFV=   0.
 Closed-shell transformation, MDV=   939524096 ITran=4 ISComp=1.
 Semi-Direct transformation.
 ModeAB=           2 MOrb=            11 LenV=     938921438
 LASXX=      5887585 LTotXX=     5887585 LenRXX=     5887585
 LTotAB=     6053256 MaxLAS=     8385300 LenRXY=     8385300
 NonZer=    11775170 LenScr=    18419712 LnRSAI=           0
 LnScr1=           0 LExtra=           0 Total=     32692597
 MaxDsk=          -1 SrtSym=           F ITran=            4
 DoSDTr:  NPSUse= 10
 JobTyp=0 Pass  1:  I=   1 to  11.
 (rs|ai) integrals will be sorted in core.
 Complete sort for first half transformation.
 First half transformation complete.
 Begin second half transformation for I=  10.
 Begin second half transformation for I=  10.
 Complete sort for second half transformation.
 Second half transformation complete.
 DoSCS=T DFT=T ScalE2(SS,OS)=  0.270000  0.270000
 Spin components of T(2) and E(2):
     alpha-alpha T2 =       0.3490797643D-01 E2=     -0.2251207338D-01
     alpha-beta  T2 =       0.1953326768D+00 E2=     -0.1315676111D+00
     beta-beta   T2 =       0.3490797643D-01 E2=     -0.2251207338D-01
 E2(B2PLYPD3) =    -0.1765917578D+00 E(B2PLYPD3) =    -0.15249097683594D+03
 Leave Link  804 at Sat Nov 12 21:52:10 2022, MaxMem=   939524096 cpu:        13.9
 (Enter /Local/ce_dana/g09/l1002.exe)
 Minotr:  Closed shell wavefunction.
          Computing MP2/KS-MP2 derivatives.
          Using Z-Vector for PSCF gradient.
          Skipping F1 and S1 gradient terms here.
          IDoAtm=11111
          Frozen-core window.
          Direct CPHF calculation.
          Differentiating once with respect to electric field.
                with respect to dipole field.
          Differentiating once with respect to nuclear coordinates.
          Using symmetry in CPHF.
          Requested convergence is 1.0D-10 RMS, and 1.0D-09 maximum.
          NewPWx=T KeepS1=F KeepF1=F KeepIn=T MapXYZ=F SortEE=F KeepMc=T.
          MDV=     939523940 using IRadAn=       5.
 Using stored XC quadrature information.
 Keep R1 ints in memory in symmetry-blocked form, NReq=23445632.
 FoFCou: FMM=F IPFlag=           0 FMFlag=           0 FMFlg1=           0
         NFxFlg=           0 DoJE=F BraDBF=F KetDBF=F FulRan=T
         wScrn=  0.000000 ICntrl=     600 IOpCl=  0 I1Cent=           0 NGrid=           0
         NMat0=    1 NMatS0=   5565 NMatT0=    0 NMatD0=    1 NMtDS0=    0 NMtDT0=    0
 Petite list used in FoFCou.
          Solving linear equations separately, MaxMat=       0.
          There are     1 degrees of freedom in the 1st order CPHF.  IDoFFX=0 NUNeed=     1.
 LinEq1:  Iter=  0 NonCon=     1 RMS=2.48D-03 Max=4.08D-02 NDo=     1
 AX will form     1 AO Fock derivatives at one time.
 LinEq1:  Iter=  1 NonCon=     1 RMS=8.16D-04 Max=7.85D-03 NDo=     1
 LinEq1:  Iter=  2 NonCon=     1 RMS=2.79D-04 Max=3.21D-03 NDo=     1
 LinEq1:  Iter=  3 NonCon=     1 RMS=1.67D-04 Max=2.15D-03 NDo=     1
 LinEq1:  Iter=  4 NonCon=     1 RMS=6.66D-05 Max=1.54D-03 NDo=     1
 LinEq1:  Iter=  5 NonCon=     1 RMS=4.46D-05 Max=9.42D-04 NDo=     1
 LinEq1:  Iter=  6 NonCon=     1 RMS=1.73D-05 Max=1.82D-04 NDo=     1
 LinEq1:  Iter=  7 NonCon=     1 RMS=3.60D-06 Max=2.43D-05 NDo=     1
 LinEq1:  Iter=  8 NonCon=     1 RMS=6.91D-07 Max=5.00D-06 NDo=     1
 LinEq1:  Iter=  9 NonCon=     1 RMS=1.18D-07 Max=1.02D-06 NDo=     1
 LinEq1:  Iter= 10 NonCon=     1 RMS=2.47D-08 Max=2.14D-07 NDo=     1
 LinEq1:  Iter= 11 NonCon=     1 RMS=3.26D-09 Max=2.66D-08 NDo=     1
 LinEq1:  Iter= 12 NonCon=     1 RMS=4.78D-10 Max=5.54D-09 NDo=     1
 LinEq1:  Iter= 13 NonCon=     0 RMS=9.09D-11 Max=8.75D-10 NDo=     1
 Linear equations converged to 1.000D-10 1.000D-09 after    13 iterations.
 End of Minotr F.D. properties file   721 does not exist.
 End of Minotr F.D. properties file   722 does not exist.
 End of Minotr F.D. properties file   788 does not exist.
 Leave Link 1002 at Sat Nov 12 21:52:13 2022, MaxMem=   939524096 cpu:        27.1
 (Enter /Local/ce_dana/g09/l1102.exe)
 Use density number 2.
 Symmetrizing basis deriv contribution to polar:
 IMax=3 JMax=2 DiffMx= 0.00D+00
 Leave Link 1102 at Sat Nov 12 21:52:13 2022, MaxMem=   939524096 cpu:         0.1
 (Enter /Local/ce_dana/g09/l1110.exe)
 Forming Gx(P) for generalized density number  2 NAtomX=     5.
 Integral derivatives from FoFJK, PRISM(SPDF).
 Do as many integral derivatives as possible in FoFJK.
 G2DrvN: MDV=     939523952.
 G2DrvN: will do     6 centers at a time, making    1 passes.
 Calling FoFCou, ICntrl=  3107 FMM=F I1Cent=   0 AccDes= 1.00D-12.
 FoFJK:  IHMeth= 1 ICntrl=    3107 DoSepK=F KAlg= 0 I1Cent=   0 FoldK=F
 IRaf=         0 NMat=   1 IRICut=       1 DoRegI=T DoRafI=F ISym2E= 1.
 FoFCou: FMM=F IPFlag=           0 FMFlag=      100000 FMFlg1=           0
         NFxFlg=           0 DoJE=F BraDBF=F KetDBF=F FulRan=T
         wScrn=  0.000000 ICntrl=    3107 IOpCl=  0 I1Cent=           0 NGrid=           0
         NMat0=    1 NMatS0=      1 NMatT0=    0 NMatD0=    1 NMtDS0=    0 NMtDT0=    0
 Petite list used in FoFCou.
 End of G2Drv F.D. properties file   721 does not exist.
 End of G2Drv F.D. properties file   722 does not exist.
 End of G2Drv F.D. properties file   788 does not exist.
 Leave Link 1110 at Sat Nov 12 21:52:16 2022, MaxMem=   939524096 cpu:        22.2
 (Enter /Local/ce_dana/g09/l1112.exe)
 MP22nd: MDV=     939524096
 DoSCS=T DFT=T ScalE2(SS,OS)=  0.270000  0.270000
 Using stored XC quadrature information.
 This link is doing NAtomX=     5 total of    18 degrees of freedom.
 Using ON3 I/O method in MakUI.
 Frozen-core window:  NFC=   3 NFV=   0.
 Using Ix for Sx.
 Use MO integrals over full window.
 Using OV2 memory method for fx*t*t/D, MaxI=    11 DoOO2=F NP=  10.
 R2 and R3 integrals will be kept in memory, NReq=    54654860.
 FoFCou: FMM=F IPFlag=           0 FMFlag=           0 FMFlg1=           0
         NFxFlg=           0 DoJE=F BraDBF=F KetDBF=F FulRan=T
         wScrn=  0.000000 ICntrl=     600 IOpCl=  0 I1Cent=           0 NGrid=           0
         NMat0=    1 NMatS0=      1 NMatT0=    0 NMatD0=    1 NMtDS0=    0 NMtDT0=    0
 Symmetry not used in FoFCou.
 DD1Dir will call FoFMem   1 times, MxPair=       188
 NAB=    66 NAA=    55 NBB=     0.
 Symmetry is being used.
 FoFJK:  IHMeth= 1 ICntrl=       0 DoSepK=F KAlg= 0 I1Cent=   0 FoldK=F
 IRaf=         0 NMat=  18 IRICut=      45 DoRegI=T DoRafI=T ISym2E= 2.
 R6Disp: Adding Grimme-D3(BJ) dispersion energy 1st derivatives to the gradient.
 Discarding MO integrals.
 Leave Link 1112 at Sat Nov 12 21:52:44 2022, MaxMem=   939524096 cpu:       125.3
 (Enter /Local/ce_dana/g09/l601.exe)
 Copying SCF densities to generalized density rwf, IOpCl= 0 IROHF=0.

 **********************************************************************

            Population analysis using the SCF density.

 **********************************************************************

 Orbital symmetries:
       Occupied  (A') (A') (A') (A') (A') (A') (A') (A') (A") (A')
                 (A")
       Virtual   (A') (A') (A') (A") (A') (A') (A") (A') (A') (A')
                 (A") (A') (A') (A') (A') (A") (A') (A") (A') (A')
                 (A') (A') (A") (A") (A') (A') (A') (A') (A") (A')
                 (A") (A") (A') (A') (A') (A") (A') (A') (A') (A')
                 (A") (A') (A") (A') (A') (A") (A') (A') (A") (A')
                 (A") (A') (A') (A") (A') (A') (A') (A") (A') (A")
                 (A") (A') (A") (A') (A") (A') (A') (A') (A') (A")
                 (A') (A") (A') (A') (A') (A") (A') (A') (A") (A')
                 (A') (A") (A') (A") (A') (A') (A") (A') (A") (A')
                 (A') (A') (A') (A')
 The electronic state is 1-A'.
 Alpha  occ. eigenvalues --  -19.80445 -10.67924 -10.60761  -1.25176  -0.86404
 Alpha  occ. eigenvalues --   -0.71138  -0.59934  -0.55444  -0.51226  -0.32861
 Alpha  occ. eigenvalues --   -0.30918
 Alpha virt. eigenvalues --    0.04893   0.11132   0.12131   0.13214   0.16126
 Alpha virt. eigenvalues --    0.24223   0.26726   0.27594   0.33340   0.34920
 Alpha virt. eigenvalues --    0.37151   0.43399   0.43743   0.46427   0.55576
 Alpha virt. eigenvalues --    0.57158   0.61769   0.65488   0.69556   0.70022
 Alpha virt. eigenvalues --    0.87077   0.89061   0.89982   0.93752   1.00206
 Alpha virt. eigenvalues --    1.01669   1.19806   1.22761   1.28416   1.28829
 Alpha virt. eigenvalues --    1.38899   1.52837   1.53742   1.59829   1.66741
 Alpha virt. eigenvalues --    1.69398   1.70321   1.80157   1.86889   2.00441
 Alpha virt. eigenvalues --    2.05143   2.07764   2.17231   2.31246   2.35127
 Alpha virt. eigenvalues --    2.42813   2.43498   2.57240   2.63311   2.63546
 Alpha virt. eigenvalues --    2.68003   2.71078   2.75498   2.81465   2.83742
 Alpha virt. eigenvalues --    2.94347   2.99122   3.05107   3.05717   3.07910
 Alpha virt. eigenvalues --    3.10626   3.12194   3.18115   3.18452   3.19582
 Alpha virt. eigenvalues --    3.21061   3.30448   3.46749   3.67349   3.75464
 Alpha virt. eigenvalues --    4.02790   4.02895   4.09885   4.22221   4.56499
 Alpha virt. eigenvalues --    4.81913   4.84158   4.90645   5.39869   5.44678
 Alpha virt. eigenvalues --    5.52729   5.63591   6.18850   6.33905   6.39904
 Alpha virt. eigenvalues --    6.52815   6.54233   6.82862   6.95781   7.20363
 Alpha virt. eigenvalues --    7.33522  22.78448  23.58180  44.42735
          Condensed to atoms (all electrons):
               1          2          3          4          5
     1  C    5.124538   0.893296  -0.033295   0.395589  -0.028401
     2  C    0.893296   4.587180   0.330588   0.000472  -0.038124
     3  O   -0.033295   0.330588   7.821856   0.000199   0.307246
     4  H    0.395589   0.000472   0.000199   0.412355  -0.000285
     5  H   -0.028401  -0.038124   0.307246  -0.000285   0.399499
 Mulliken charges:
               1
     1  C   -0.351728
     2  C    0.226588
     3  O   -0.426595
     4  H    0.191669
     5  H    0.360065
 Sum of Mulliken charges =  -0.00000
 Mulliken charges with hydrogens summed into heavy atoms:
               1
     1  C   -0.160058
     2  C    0.226588
     3  O   -0.066530
 APT charges:
               1
     1  C   -0.427171
     2  C    0.452358
     3  O   -0.586649
     4  H    0.227807
     5  H    0.333655
 Sum of APT charges =  -0.00000
 APT charges with hydrogens summed into heavy atoms:
               1
     1  C   -0.199364
     2  C    0.452358
     3  O   -0.252994
 Electronic spatial extent (au):  <R**2>=            145.7434
 Charge=             -0.0000 electrons
 Dipole moment (field-independent basis, Debye):
    X=             -1.6078    Y=             -0.6477    Z=              0.0000  Tot=              1.7334
 Quadrupole moment (field-independent basis, Debye-Ang):
   XX=            -17.1163   YY=            -12.4660   ZZ=            -18.9782
   XY=              3.0015   XZ=             -0.0000   YZ=             -0.0000
 Traceless Quadrupole moment (field-independent basis, Debye-Ang):
   XX=             -0.9295   YY=              3.7208   ZZ=             -2.7914
   XY=              3.0015   XZ=             -0.0000   YZ=             -0.0000
 Octapole moment (field-independent basis, Debye-Ang**2):
  XXX=             -1.5859  YYY=             -0.3853  ZZZ=             -0.0000  XYY=             -5.1079
  XXY=             -6.2898  XXZ=             -0.0000  XZZ=             -0.1848  YZZ=             -4.0306
  YYZ=              0.0000  XYZ=             -0.0000
 Hexadecapole moment (field-independent basis, Debye-Ang**3):
 XXXX=            -20.3493 YYYY=           -108.5684 ZZZZ=            -20.6788 XXXY=              2.5920
 XXXZ=             -0.0000 YYYX=              8.2450 YYYZ=             -0.0000 ZZZX=             -0.0000
 ZZZY=             -0.0000 XXYY=            -26.5805 XXZZ=             -7.0262 YYZZ=            -30.9121
 XXYZ=             -0.0000 YYXZ=             -0.0000 ZZXY=              0.3082
 N-N= 5.819961072576D+01 E-N=-4.734315145845D+02  KE= 1.517839166079D+02
 Symmetry A'   KE= 1.449122532249D+02
 Symmetry A"   KE= 6.871663383013D+00
  Exact polarizability:  17.852   1.004  39.385   0.000  -0.000  16.969
 Approx polarizability:  20.358   0.765  49.580  -0.000   0.000  18.842
 No NMR shielding tensors so no spin-rotation constants.
 Leave Link  601 at Sat Nov 12 21:52:44 2022, MaxMem=   939524096 cpu:         1.9
 (Enter /Local/ce_dana/g09/l701.exe)
 Compute integral second derivatives.
 ... and contract with generalized density number  2.
 Use density number 2.
 R6Disp: Adding Grimme-D3(BJ) dispersion energy 2nd derivatives to the Hessian.
 Entering OneElI...
 Calculate overlap and kinetic energy integrals
    NBasis = 120  MinDer = 2  MaxDer = 2
 Requested accuracy = 0.1000D-14
 PrsmSu:  NPrtUS=  10 ThrOK=T IAlg=1 NPAlg=1 LenDen=           0.
 Prism:   IPart=     0 DynPar=F LinDyn=F Incr=           1.
 PRISM was handed    93922269 working-precision words and   860 shell-pairs
 PRISM was handed    93922269 working-precision words and   860 shell-pairs
 PRISM was handed    93922269 working-precision words and   860 shell-pairs
 PRISM was handed    93922269 working-precision words and   860 shell-pairs
 PRISM was handed    93922269 working-precision words and   860 shell-pairs
 PRISM was handed    93922269 working-precision words and   860 shell-pairs
 PRISM was handed    93922269 working-precision words and   860 shell-pairs
 PRISM was handed    93922269 working-precision words and   860 shell-pairs
 PRISM was handed    93922269 working-precision words and   860 shell-pairs
 PRISM was handed    93922269 working-precision words and   860 shell-pairs
 IPart=  8 NShTot=          72 NBatch=          25 AvBLen=         2.9
 IPart=  0 NShTot=         109 NBatch=          45 AvBLen=         2.4
 IPart=  9 NShTot=          65 NBatch=          21 AvBLen=         3.1
 IPart=  5 NShTot=          86 NBatch=          29 AvBLen=         3.0
 IPart=  4 NShTot=          86 NBatch=          29 AvBLen=         3.0
 IPart=  1 NShTot=          99 NBatch=          37 AvBLen=         2.7
 IPart=  2 NShTot=          95 NBatch=          34 AvBLen=         2.8
 IPart=  3 NShTot=          91 NBatch=          30 AvBLen=         3.0
 IPart=  6 NShTot=          79 NBatch=          26 AvBLen=         3.0
 IPart=  7 NShTot=          78 NBatch=          26 AvBLen=         3.0
 PrSmSu:  NxtVal=             11.
 Entering OneElI...
 Calculate potential energy integrals
    NBasis = 120  MinDer = 2  MaxDer = 2
 Requested accuracy = 0.1000D-14
 PrsmSu:  NPrtUS=  10 ThrOK=T IAlg=1 NPAlg=1 LenDen=           0.
 Prism:   IPart=     0 DynPar=F LinDyn=F Incr=           4.
 PRISM was handed    93924806 working-precision words and   851 shell-pairs
 PRISM was handed    93924806 working-precision words and   851 shell-pairs
 PRISM was handed    93924806 working-precision words and   851 shell-pairs
 PRISM was handed    93924806 working-precision words and   851 shell-pairs
 PRISM was handed    93924806 working-precision words and   851 shell-pairs
 PRISM was handed    93924806 working-precision words and   851 shell-pairs
 PRISM was handed    93924806 working-precision words and   851 shell-pairs
 PRISM was handed    93924806 working-precision words and   851 shell-pairs
 PRISM was handed    93924806 working-precision words and   851 shell-pairs
 PRISM was handed    93924806 working-precision words and   851 shell-pairs
 IPart=  8 NShTot=         355 NBatch=          71 AvBLen=         5.0
 IPart=  3 NShTot=         450 NBatch=          90 AvBLen=         5.0
 IPart=  0 NShTot=         535 NBatch=         107 AvBLen=         5.0
 IPart=  4 NShTot=         430 NBatch=          86 AvBLen=         5.0
 IPart=  9 NShTot=         330 NBatch=          66 AvBLen=         5.0
 IPart=  1 NShTot=         495 NBatch=          99 AvBLen=         5.0
 IPart=  2 NShTot=         465 NBatch=          93 AvBLen=         5.0
 IPart=  7 NShTot=         375 NBatch=          75 AvBLen=         5.0
 IPart=  5 NShTot=         420 NBatch=          84 AvBLen=         5.0
 IPart=  6 NShTot=         400 NBatch=          80 AvBLen=         5.0
 PrSmSu:  NxtVal=             41.
   2 Symmetry operations used in ECPInt.
 ECPInt:  NShTT=     861 NPrTT=    2700 LenC2=     859 LenP2D=    2393.
 LDataN:  DoStor=F MaxTD1= 8 Len=  415
 LDataN:  DoStor=T MaxTD1= 8 Len=  415
 ECPSu:  NPrtUS=  10 ThrOK=T
 Polarizability after L701:
                1             2             3 
      1  0.178517D+02
      2  0.100403D+01  0.393850D+02
      3  0.000000D+00  0.000000D+00  0.169693D+02
 Dipole Derivatives after L701:
                 1             2             3             4             5 
      1  -0.303119D+00  0.941526D-02  0.000000D+00 -0.796214D-01 -0.531560D-02
      2   0.145120D-02 -0.608631D+00  0.000000D+00 -0.318743D-01  0.139892D+01
      3   0.000000D+00  0.000000D+00 -0.369764D+00  0.000000D+00  0.000000D+00
                 6             7             8             9            10 
      1   0.000000D+00 -0.915371D-01 -0.664497D-01  0.000000D+00  0.214602D+00
      2   0.000000D+00 -0.329615D-01 -0.137568D+01  0.000000D+00 -0.476571D-02
      3   0.377724D-01  0.000000D+00  0.000000D+00 -0.292730D+00  0.000000D+00
                11            12            13            14            15 
      1   0.325907D-02  0.000000D+00  0.259675D+00  0.590910D-01  0.000000D+00
      2   0.222520D+00  0.000000D+00  0.681503D-01  0.362867D+00  0.000000D+00
      3   0.000000D+00  0.246299D+00  0.000000D+00  0.000000D+00  0.378423D+00
 Hessian after L701:
                1             2             3             4             5 
      1  0.133086D+02
      2  0.209330D+00 -0.580555D+01
      3  0.000000D+00  0.000000D+00  0.132511D+02
      4 -0.105523D+02 -0.208722D-01  0.000000D+00  0.177060D+02
      5 -0.130976D+00  0.461873D+01  0.000000D+00  0.284915D+00 -0.611479D+01
      6  0.000000D+00  0.000000D+00 -0.105651D+02  0.000000D+00  0.000000D+00
      7 -0.445142D+00 -0.287242D+00  0.000000D+00 -0.712598D+01 -0.280440D+00
      8 -0.112614D+00  0.206166D+01  0.000000D+00 -0.305559D+00  0.803246D+00
      9  0.000000D+00  0.000000D+00 -0.343444D+00  0.000000D+00  0.000000D+00
     10 -0.236962D+01  0.132524D-01  0.000000D+00 -0.103024D+00  0.192011D-01
     11  0.920221D-02 -0.855999D+00  0.000000D+00  0.316932D-01  0.550512D+00
     12  0.000000D+00  0.000000D+00 -0.237169D+01  0.000000D+00  0.000000D+00
     13  0.584286D-01  0.855316D-01  0.000000D+00  0.752515D-01  0.107300D+00
     14  0.250580D-01 -0.188449D-01  0.000000D+00  0.982233D-02  0.142298D+00
     15  0.000000D+00  0.000000D+00  0.291507D-01  0.000000D+00  0.000000D+00
                6             7             8             9            10 
      6  0.180129D+02
      7  0.000000D+00  0.880831D+01
      8  0.000000D+00 -0.106118D+01  0.506853D-01
      9 -0.736064D+01  0.000000D+00  0.000000D+00  0.117288D+02
     10  0.000000D+00 -0.212597D-01 -0.244963D-02  0.000000D+00  0.249306D+01
     11  0.000000D+00 -0.245488D-01  0.137151D+00  0.000000D+00 -0.321290D-01
     12 -0.106245D+00  0.000000D+00  0.000000D+00 -0.208305D-01  0.000000D+00
     13  0.000000D+00 -0.121593D+01  0.148180D+01  0.000000D+00  0.847650D-03
     14  0.000000D+00  0.165341D+01 -0.305275D+01  0.000000D+00  0.212509D-02
     15  0.190800D-01  0.000000D+00  0.000000D+00 -0.400384D+01  0.000000D+00
               11            12            13            14            15 
     11  0.157285D+00
     12  0.000000D+00  0.249913D+01
     13  0.157824D-01  0.000000D+00  0.108140D+01
     14  0.110511D-01  0.000000D+00 -0.169041D+01  0.291824D+01
     15  0.000000D+00 -0.361213D-03  0.000000D+00  0.000000D+00  0.395597D+01
 Leave Link  701 at Sat Nov 12 21:52:45 2022, MaxMem=   939524096 cpu:         5.0
 (Enter /Local/ce_dana/g09/l702.exe)
 L702 exits ... SP integral derivatives will be done elsewhere.
 Leave Link  702 at Sat Nov 12 21:52:45 2022, MaxMem=   939524096 cpu:         0.0
 (Enter /Local/ce_dana/g09/l703.exe)
 Compute integral second derivatives, UseDBF=F ICtDFT=           0.
 Integral derivatives from FoFJK, PRISM(SPDF).
 ICntrl=  10100127.
 Calling FoFJK, ICntrl=  10100127 FMM=F ISym2X=1 I1Cent= 0 IOpClX= 0 NMat=1 NMatS=1 NMatT=0.
 FoFJK:  IHMeth= 1 ICntrl=10100127 DoSepK=F KAlg= 0 I1Cent=   0 FoldK=F
 IRaf=         0 NMat=   1 IRICut=       1 DoRegI=T DoRafI=F ISym2E= 1.
 FoFCou: FMM=F IPFlag=           0 FMFlag=      100000 FMFlg1=         800
         NFxFlg=           0 DoJE=F BraDBF=F KetDBF=F FulRan=T
         wScrn=  0.000000 ICntrl=10100127 IOpCl=  0 I1Cent=           0 NGrid=           0
         NMat0=    1 NMatS0=      1 NMatT0=    0 NMatD0=    1 NMtDS0=    0 NMtDT0=    0
 Petite list used in FoFCou.
 FoFCou:  KetSym=F NOpSet=  2 NOpAb=2 NOp=  2.
 FoFCou:  CnvScl= 1.00D+00 Thresh= 1.00D-12 IAcrcy=      10.
 PrismS was handed   939443113 working-precision words and   856 shell-pairs
 FoFCou: LinMIO=F DoNuc=F BraDBF=F KetDBF=F HaveP=T PDBF=F HaveZ=T HaveW=F
         NIJTC =      10 NIJTAt=       0 NIJTCD=       0 NIJTT =      10
         IJTBeg=       1 IJTEnd=      10 KLTBeg=       1 KLTEnd=      10
         IPTBeg=       1 IPTEnd=      10 IPTBCv=       1 IPTECv=      10
         IZTBeg=       1 IZTEnd=      10 IZTBCv=       1 IZTECv=      10
         IWTBeg=      11 IWTEnd=      10 IWTBCv=      11 IWTECv=      10
         INTBeg=       1 INTEnd=       0 IFTBCv=       1 IFTECv=      10
 NCel replicated for PrismC:     1
 CoulSu:  IncDef=  1024 NBBP=         366796 NTPThr=   100 NPartT=   10 Incr=         366 LDynOK=F.
 CoulSu:  NPrtUS=  10 ThrOK=T IAlg=1 NPAlg=1 LenDen=           0 LWGrdD=           0 DoCopy=F.
 Enter PrismC: JobTyp=22 DoJE=F Cont=F.
 PrismC:  IPart=     0 DynPar=T LinDyn=F Incr=         366 UseFst=F UseS4=T IGathr=2.
 PrismC was handed    93926370 working-precision words and   856 shell-pairs
 Enter PrismC: JobTyp=22 DoJE=F Cont=F.
 Enter PrismC: JobTyp=22 DoJE=F Cont=F.
 PrismC was handed    93926370 working-precision words and   856 shell-pairs
 Enter PrismC: JobTyp=22 DoJE=F Cont=F.
 Enter PrismC: JobTyp=22 DoJE=F Cont=F.
 PrismC was handed    93926370 working-precision words and   856 shell-pairs
 Enter PrismC: JobTyp=22 DoJE=F Cont=F.
 PrismC was handed    93926370 working-precision words and   856 shell-pairs
 Enter PrismC: JobTyp=22 DoJE=F Cont=F.
 PrismC was handed    93926370 working-precision words and   856 shell-pairs
 PrismC was handed    93926370 working-precision words and   856 shell-pairs
 Enter PrismC: JobTyp=22 DoJE=F Cont=F.
 Enter PrismC: JobTyp=22 DoJE=F Cont=F.
 PrismC was handed    93926370 working-precision words and   856 shell-pairs
 PrismC was handed    93926370 working-precision words and   856 shell-pairs
 PrismC was handed    93926370 working-precision words and   856 shell-pairs
 Enter PrismC: JobTyp=22 DoJE=F Cont=F.
 PrismC was handed    93926370 working-precision words and   856 shell-pairs
 IPart=  8 NShTot=       39762 NShNF=       39762 NShFF=           0 NBatch=        1277 AvBLen=        31.1
 IPart=  2 NShTot=       44717 NShNF=       44717 NShFF=           0 NBatch=        1513 AvBLen=        29.6
 IPart=  5 NShTot=       30555 NShNF=       30555 NShFF=           0 NBatch=        1354 AvBLen=        22.6
 IPart=  0 NShTot=       32335 NShNF=       32335 NShFF=           0 NBatch=        1131 AvBLen=        28.6
 IPart=  7 NShTot=       40628 NShNF=       40628 NShFF=           0 NBatch=        1554 AvBLen=        26.1
 IPart=  6 NShTot=       33270 NShNF=       33270 NShFF=           0 NBatch=        1420 AvBLen=        23.4
 IPart=  3 NShTot=       29742 NShNF=       29742 NShFF=           0 NBatch=        1356 AvBLen=        21.9
 IPart=  9 NShTot=       30356 NShNF=       30356 NShFF=           0 NBatch=        1341 AvBLen=        22.6
 IPart=  1 NShTot=       36198 NShNF=       36198 NShFF=           0 NBatch=        1500 AvBLen=        24.1
 IPart=  4 NShTot=       28161 NShNF=       28161 NShFF=           0 NBatch=        1152 AvBLen=        24.4
 CoulSu:  NxtVal=         390889.
 ReadGW:  IGet=0 IStart=           1 Next=           1 LGW=           0.
 Remaining memory in FofDFT      895.99 Mw
 CkSvGd:  ISavGI=        -1 IRadAn=       5 IRASav=       5 ISavGd=        -1.
 CalDSu:  NPrtUS=  10 ThrOK=T IAlg=1 NPAlg=2 DoDPD=T LenP=        7260 LenD1P=             0.
 IPart=  0 IRanGd=          0 ScrnBf=T ScrnGd=T RCrit=4.00D+00 DoMicB=T.
 IPart=  0         5203 of         5428 points in       9 batches and       30 microbatches, Max-NSigAt=       5 Max-NSgAt2=       5
 IPart=  9         5006 of         5344 points in      12 batches and       53 microbatches, Max-NSigAt=       5 Max-NSgAt2=       5
 IPart=  5         5455 of         5827 points in      11 batches and       61 microbatches, Max-NSigAt=       5 Max-NSgAt2=       5
 IPart=  6         5121 of         5344 points in       9 batches and       38 microbatches, Max-NSigAt=       5 Max-NSgAt2=       5
 IPart=  1         5699 of         5937 points in       9 batches and       30 microbatches, Max-NSigAt=       5 Max-NSgAt2=       5
 IPart=  3         5565 of         5772 points in       8 batches and       36 microbatches, Max-NSigAt=       5 Max-NSgAt2=       5
 IPart=  2         5686 of         5952 points in      10 batches and       36 microbatches, Max-NSigAt=       5 Max-NSgAt2=       5
 IPart=  4         6252 of         6774 points in      13 batches and       47 microbatches, Max-NSigAt=       5 Max-NSgAt2=       5
 IPart=  7         5814 of         6124 points in      10 batches and       40 microbatches, Max-NSigAt=       5 Max-NSgAt2=       5
 IPart=  8         6500 of         6826 points in      11 batches and       32 microbatches, Max-NSigAt=       5 Max-NSgAt2=       5
 Polarizability after L703:
                1             2             3 
      1  0.178517D+02
      2  0.100403D+01  0.393850D+02
      3  0.000000D+00  0.000000D+00  0.169693D+02
 Dipole Derivatives after L703:
                 1             2             3             4             5 
      1  -0.303119D+00  0.941526D-02  0.000000D+00 -0.796214D-01 -0.531560D-02
      2   0.145120D-02 -0.608631D+00  0.000000D+00 -0.318743D-01  0.139892D+01
      3   0.000000D+00  0.000000D+00 -0.369764D+00  0.000000D+00  0.000000D+00
                 6             7             8             9            10 
      1   0.000000D+00 -0.915371D-01 -0.664497D-01  0.000000D+00  0.214602D+00
      2   0.000000D+00 -0.329615D-01 -0.137568D+01  0.000000D+00 -0.476571D-02
      3   0.377724D-01  0.000000D+00  0.000000D+00 -0.292730D+00  0.000000D+00
                11            12            13            14            15 
      1   0.325907D-02  0.000000D+00  0.259675D+00  0.590910D-01  0.000000D+00
      2   0.222520D+00  0.000000D+00  0.681503D-01  0.362867D+00  0.000000D+00
      3   0.000000D+00  0.246299D+00  0.000000D+00  0.000000D+00  0.378423D+00
 Hessian after L703:
                1             2             3             4             5 
      1  0.370934D-01
      2 -0.141372D-01  0.149675D+01
      3  0.000000D+00  0.000000D+00  0.268766D-01
      4 -0.245474D-01  0.828878D-02  0.000000D+00  0.864351D-01
      5  0.707606D-02 -0.104556D+01  0.000000D+00 -0.618387D-02  0.154544D+01
      6  0.000000D+00  0.000000D+00 -0.235262D-01  0.000000D+00  0.000000D+00
      7  0.577830D-02 -0.648487D-02  0.000000D+00 -0.660712D-01 -0.217166D-02
      8  0.183811D-02 -0.283184D-01  0.000000D+00  0.388638D-01 -0.459152D+00
      9  0.000000D+00  0.000000D+00  0.613996D-02  0.000000D+00  0.000000D+00
     10 -0.172363D-01  0.585492D-02  0.000000D+00 -0.341406D-02 -0.213267D-02
     11  0.491367D-02 -0.425684D+00  0.000000D+00  0.329069D-03  0.278302D-02
     12  0.000000D+00  0.000000D+00 -0.102064D-01  0.000000D+00  0.000000D+00
     13 -0.108796D-02  0.647840D-02  0.000000D+00  0.759759D-02  0.341215D-02
     14  0.309373D-03  0.281473D-02  0.000000D+00 -0.412978D-01 -0.435114D-01
     15  0.000000D+00  0.000000D+00  0.716003D-03  0.000000D+00  0.000000D+00
                6             7             8             9            10 
      6  0.608627D-01
      7  0.000000D+00  0.487580D+00
      8  0.000000D+00  0.147594D+00  0.580253D+00
      9 -0.284524D-01  0.000000D+00  0.000000D+00  0.146311D-01
     10  0.000000D+00  0.724206D-02 -0.311879D-03  0.000000D+00  0.130595D-01
     11  0.000000D+00 -0.166903D-03  0.285278D-02  0.000000D+00 -0.499772D-02
     12 -0.605672D-02  0.000000D+00  0.000000D+00  0.626173D-02  0.000000D+00
     13  0.000000D+00 -0.434529D+00 -0.187984D+00  0.000000D+00  0.348789D-03
     14  0.000000D+00 -0.138770D+00 -0.956351D-01  0.000000D+00  0.158736D-02
     15 -0.282746D-02  0.000000D+00  0.000000D+00  0.141962D-02  0.000000D+00
               11            12            13            14            15 
     11  0.420213D+00
     12  0.000000D+00  0.945157D-02
     13 -0.781168D-04  0.000000D+00  0.427670D+00
     14 -0.164323D-03  0.000000D+00  0.178171D+00  0.136496D+00
     15  0.000000D+00  0.549833D-03  0.000000D+00  0.000000D+00  0.142002D-03
 Leave Link  703 at Sat Nov 12 21:52:50 2022, MaxMem=   939524096 cpu:        53.1
 (Enter /Local/ce_dana/g09/l716.exe)
 FrcOut:
 IF    =    41 IFX   =    56 IFXYZ =    71
 IFFX  =    86 IFFFX =   206 IFLen =    15
 IFFLen=   120 IFFFLn=     0 IEDerv=   206
 LEDerv=   773 IFroze=  1168 ICStrt= 23492
 Dipole        =-6.22235159D-01-2.77846242D-01-9.18446037D-20
 DipoleDeriv   =-3.03119162D-01 1.45119885D-03-5.78813755D-15
                 9.41526372D-03-6.08630597D-01 1.42221142D-13
                -7.74872305D-14 2.22596814D-12-3.69763916D-01
                -7.96213576D-02-3.18742723D-02 7.91720447D-15
                -5.31560462D-03 1.39892202D+00-1.62585961D-13
                 7.63335796D-14-2.25084908D-12 3.77723964D-02
                -9.15370779D-02-3.29614805D-02-2.40151478D-15
                -6.64497335D-02-1.37567895D+00 2.85725532D-14
                 1.00638147D-15 3.51909418D-14-2.92730339D-01
                 2.14602352D-01-4.76570706D-03 1.19566140D-16
                 3.25906595D-03 2.22520172D-01-7.26964651D-15
                 4.89762173D-16-8.76729683D-15 2.46298632D-01
                 2.59675246D-01 6.81502611D-02 1.52881714D-16
                 5.90910085D-02 3.62867353D-01-9.38087419D-16
                -3.42492663D-16-1.54271172D-15 3.78423226D-01
 Polarizability= 1.78516616D+01 1.00403182D+00 3.93850278D+01
                 2.85842160D-15-6.76577659D-15 1.69692992D+01
 VibFq2-Diag1:  N=     15 IV=           6 MDV=   939499542 NE2=    62633302
 Full mass-weighted force constant matrix:
 Low frequencies ---   -6.2806   -5.6033    0.0005    0.0010    0.0014    9.4076
 Low frequencies ---  385.5717  422.1428  539.1313
 OrtVCM:  Ph=1 IPass= 1 DotMx1= 0.00D+00
 OrtVCM:  IS=    1 I=    1 IndO=    1 Dot= 1.00D+00 DotN= 1.00D+00 ElMax1= 6.17D-01 ElMax1N= 6.17D-01
 OrtVCM:  Ph=2 NNew=    0 IAdd=    2 IPass= 1 DotMx2= 0.00D+00
 OrtVCM:  IS=    1 I=    2 IndO=    2 Dot= 1.00D+00 DotN= 1.00D+00 ElMax1= 6.17D-01 ElMax1N= 6.17D-01
 OrtVCM:  Ph=2 NNew=    0 IAdd=    3 IPass= 1 DotMx2= 0.00D+00
 OrtVCM:  IS=    1 I=    3 IndO=    3 Dot= 1.00D+00 DotN= 1.00D+00 ElMax1= 6.17D-01 ElMax1N= 6.17D-01
 OrtVCM:  Ph=2 NNew=    0 IAdd=    4 IPass= 1 DotMx2= 4.08D-32
 OrtVCM:  IS=    1 I=    4 IndO=    4 Dot= 1.00D+00 DotN= 1.00D+00 ElMax1= 9.55D-01 ElMax1N= 9.55D-01
 OrtVCM:  Ph=2 NNew=    0 IAdd=    5 IPass= 1 DotMx2= 1.53D-16
 OrtVCM:  IS=    1 I=    5 IndO=    5 Dot= 1.00D+00 DotN= 1.00D+00 ElMax1= 6.48D-01 ElMax1N= 6.48D-01
 OrtVCM:  Ph=2 NNew=    0 IAdd=    6 IPass= 1 DotMx2= 1.39D-16
 OrtVCM:  IS=    1 I=    6 IndO=    6 Dot= 1.00D+00 DotN= 1.00D+00 ElMax1= 6.43D-01 ElMax1N= 6.43D-01
 OrtVCM:  Ph=1 IPass= 1 DotMx1= 6.48D-01
 OrtVCM:  Ph=1 IPass= 2 DotMx1= 1.89D-16
 OrtVCM:  IS=    1 I=    1 IndO=    7 Dot= 3.03D-01 DotN= 3.03D-01 ElMax1= 3.29D-01 ElMax1N= 3.29D-01
 OrtVCM:  Ph=2 NNew=    0 IAdd=    2 IPass= 1 DotMx2= 1.05D-02
 OrtVCM:  Ph=2 NNew=    0 IAdd=    2 IPass= 2 DotMx2= 3.47D-18
 OrtVCM:  IS=    1 I=    2 IndO=    8 Dot= 7.14D-01 DotN= 7.14D-01 ElMax1= 7.14D-01 ElMax1N= 7.14D-01
 OrtVCM:  Ph=2 NNew=    0 IAdd=    3 IPass= 1 DotMx2= 2.76D-17
 OrtVCM:  IS=    1 I=    3 IndO=    9 Dot= 2.97D-01 DotN= 2.97D-01 ElMax1= 3.30D-01 ElMax1N= 3.30D-01
 OrtVCM:  Ph=2 NNew=    0 IAdd=    4 IPass= 1 DotMx2= 5.97D-01
 OrtVCM:  Ph=2 NNew=    0 IAdd=    4 IPass= 2 DotMx2= 2.69D-16
 OrtVCM:  IS=    1 I=    4 IndO=   10 Dot= 3.54D-01 DotN= 3.54D-01 ElMax1= 4.26D-01 ElMax1N= 4.26D-01
 OrtVCM:  Ph=2 NNew=    0 IAdd=    5 IPass= 1 DotMx2= 3.38D-01
 OrtVCM:  Ph=2 NNew=    0 IAdd=    5 IPass= 2 DotMx2= 2.78D-17
 OrtVCM:  IS=    1 I=    5 IndO=   11 Dot= 6.00D-01 DotN= 6.00D-01 ElMax1= 6.00D-01 ElMax1N= 6.00D-01
 OrtVCM:  Ph=2 NNew=    0 IAdd=    6 IPass= 1 DotMx2= 6.06D-01
 OrtVCM:  Ph=2 NNew=    0 IAdd=    6 IPass= 2 DotMx2= 9.71D-17
 OrtVCM:  IS=    1 I=    6 IndO=   12 Dot= 3.41D-01 DotN= 3.41D-01 ElMax1= 4.38D-01 ElMax1N= 4.38D-01
 OrtVCM:  Ph=2 NNew=    0 IAdd=    7 IPass= 1 DotMx2= 3.32D-01
 OrtVCM:  Ph=2 NNew=    0 IAdd=    7 IPass= 2 DotMx2= 1.08D-16
 OrtVCM:  IS=    1 I=    7 IndO=   13 Dot= 7.35D-02 DotN= 7.35D-02 ElMax1= 2.54D-01 ElMax1N= 2.54D-01
 OrtVCM:  Ph=2 NNew=    0 IAdd=    8 IPass= 1 DotMx2= 5.94D-01
 OrtVCM:  Ph=2 NNew=    0 IAdd=    8 IPass= 2 DotMx2= 2.50D-16
 OrtVCM:  IS=    1 I=    8 IndO=   14 Dot= 1.06D-01 DotN= 1.06D-01 ElMax1= 2.22D-01 ElMax1N= 2.22D-01
 OrtVCM:  Ph=2 NNew=    0 IAdd=    9 IPass= 1 DotMx2= 2.90D-01
 OrtVCM:  Ph=2 NNew=    0 IAdd=    9 IPass= 2 DotMx2= 7.15D-17
 OrtVCM:  IS=    1 I=    9 IndO=    0 Dot= 7.13D-34 DotN= 7.13D-34 ElMax1= 2.33D-17 ElMax1N= 2.33D-17
 SchOr2:  IPass= 1 Test2A= 1.00D-01 IOff=     0 NDo=     9 NNew=     8
 OrtVCM:  Ph=1 IPass= 1 DotMx1= 7.16D-01
 OrtVCM:  Ph=1 IPass= 2 DotMx1= 1.89D-16
 OrtVCM:  IS=    1 I=    1 IndO=   15 Dot= 1.85D-02 DotN= 1.85D-02 ElMax1= 9.43D-02 ElMax1N= 9.43D-02
 SchOr2:  IPass= 1 Test2A= 1.00D-01 IOff=     9 NDo=     1 NNew=     1
 VibFq2-Diag2:  N=      9 IV=           6 MDV=   939499542 NE2=   104388837
 Dipole derivatives wrt mode   1:  1.23175D+00 -3.13517D+00  1.26571D-11
 Vibrational polarizability contributions from mode   1       0.2746425       1.7792773       0.0000000
 Vibrational hyperpolarizability contributions from mode   1       0.0000000      -0.0000000       0.0000000
 Dipole derivatives wrt mode   2:  6.52658D-12  7.18186D-12 -2.50522D+00
 Vibrational polarizability contributions from mode   2       0.0000000       0.0000000       0.9477800
 Vibrational hyperpolarizability contributions from mode   2       0.0000000       0.0000000      -0.0000000
 Dipole derivatives wrt mode   3:  3.55735D-13 -1.77603D-12 -8.06007D+00
 Vibrational polarizability contributions from mode   3       0.0000000       0.0000000       6.0148037
 Vibrational hyperpolarizability contributions from mode   3       0.0000000      -0.0000000      -0.0000000
 Dipole derivatives wrt mode   4: -7.33867D+00  5.43091D-01 -6.84060D-13
 Vibrational polarizability contributions from mode   4       3.6523624       0.0200025       0.0000000
 Vibrational hyperpolarizability contributions from mode   4      -0.0000000       0.0000000      -0.0000000
 Dipole derivatives wrt mode   5: -1.26007D-01  9.58819D+00  2.80841D-13
 Vibrational polarizability contributions from mode   5       0.0003666       2.1223667       0.0000000
 Vibrational hyperpolarizability contributions from mode   5      -0.0000000       0.0000000       0.0000000
 Dipole derivatives wrt mode   6:  9.30206D-01 -9.38716D+00  6.17227D-13
 Vibrational polarizability contributions from mode   6       0.0147547       1.5025928       0.0000000
 Vibrational hyperpolarizability contributions from mode   6       0.0000000      -0.0000000       0.0000000
 Dipole derivatives wrt mode   7: -2.85484D-02  1.18850D+01 -2.85562D-12
 Vibrational polarizability contributions from mode   7       0.0000043       0.7482995       0.0000000
 Vibrational hyperpolarizability contributions from mode   7      -0.0000000       0.0000000      -0.0000000
 Dipole derivatives wrt mode   8: -9.09373D-02 -9.73214D+00  1.18127D-12
 Vibrational polarizability contributions from mode   8       0.0000181       0.2076881       0.0000000
 Vibrational hyperpolarizability contributions from mode   8      -0.0000000      -0.0000000       0.0000000
 Dipole derivatives wrt mode   9: -8.07890D+00 -7.49685D+00 -5.76816D-14
 Vibrational polarizability contributions from mode   9       0.1232982       0.1061721       0.0000000
 Vibrational hyperpolarizability contributions from mode   9      -0.0000000      -0.0000000      -0.0000000
 Diagonal vibrational polarizability:
        4.0654469       6.4863990       6.9625837
 NorSel:  MapVib=      1      2      3      4      5      6      7      8      9
 Harmonic frequencies (cm**-1), IR intensities (KM/Mole), Raman scattering
 activities (A**4/AMU), depolarization ratios for plane and unpolarized
 incident light, reduced masses (AMU), force constants (mDyne/A),
 and normal coordinates:
                      1                      2                      3
                     A'                     A"                     A"
 Frequencies --    385.5717               422.1428               539.1313
 Red. masses --      5.4154                 8.3354                 1.1827
 Frc consts  --      0.4743                 0.8752                 0.2025
 IR Inten    --     11.3465                 6.2762                64.9647
  Atom  AN      X      Y      Z        X      Y      Z        X      Y      Z
     1   6     0.27  -0.00  -0.00     0.00  -0.00   0.41     0.00   0.00   0.07
     2   6    -0.54  -0.01   0.00    -0.00  -0.00  -0.67    -0.00  -0.00   0.08
     3   8     0.16   0.04  -0.00     0.00   0.00   0.20     0.00  -0.00  -0.05
     4   1     0.32   0.00   0.00     0.00  -0.00  -0.49     0.00   0.00  -0.99
     5   1     0.43  -0.57  -0.00     0.00  -0.00   0.33     0.00  -0.00  -0.07
                      4                      5                      6
                     A'                     A'                     A'
 Frequencies --    629.9366              1079.6752              1256.2613
 Red. masses --      1.1706                 9.4025                 1.1734
 Frc consts  --      0.2737                 6.4577                 1.0911
 IR Inten    --     54.1510                91.9493                88.9840
  Atom  AN      X      Y      Z        X      Y      Z        X      Y      Z
     1   6     0.12   0.00   0.00    -0.00   0.49   0.00    -0.00   0.04  -0.00
     2   6    -0.01  -0.00  -0.00    -0.06   0.24  -0.00     0.07   0.01  -0.00
     3   8    -0.02  -0.00   0.00     0.06  -0.58   0.00    -0.07   0.01   0.00
     4   1    -0.99  -0.01  -0.00     0.01   0.56   0.00    -0.04   0.05   0.00
     5   1    -0.04   0.05   0.00    -0.22  -0.01   0.00     0.36  -0.92   0.00
                      7                      8                      9
                     A'                     A'                     A'
 Frequencies --   2253.8627              3503.2347              3774.3344
 Red. masses --      6.3120                 1.1538                 1.0660
 Frc consts  --     18.8917                 8.3433                 8.9469
 IR Inten    --    141.2537                94.7229               121.4714
  Atom  AN      X      Y      Z        X      Y      Z        X      Y      Z
     1   6     0.00  -0.37  -0.00    -0.00   0.11  -0.00     0.00  -0.00   0.00
     2   6    -0.00   0.58   0.00     0.00  -0.03   0.00     0.00   0.00  -0.00
     3   8    -0.00  -0.10  -0.00     0.00   0.00  -0.00     0.06   0.03   0.00
     4   1    -0.00  -0.70  -0.00     0.01  -0.99   0.00    -0.00   0.01  -0.00
     5   1     0.04  -0.16  -0.00    -0.01  -0.00  -0.00    -0.90  -0.42   0.00

 -------------------
 - Thermochemistry -
 -------------------
 Temperature   298.150 Kelvin.  Pressure   1.00000 Atm.
 Atom     1 has atomic number  6 and mass  12.00000
 Atom     2 has atomic number  6 and mass  12.00000
 Atom     3 has atomic number  8 and mass  15.99491
 Atom     4 has atomic number  1 and mass   1.00783
 Atom     5 has atomic number  1 and mass   1.00783
 Molecular mass:    42.01056 amu.
 Principal axes and moments of inertia in atomic units:
                           1         2         3
     Eigenvalues --     2.68336 185.33465 188.01800
           X           -0.01096   0.99994   0.00000
           Y            0.99994   0.01096  -0.00000
           Z            0.00000  -0.00000   1.00000
 This molecule is an asymmetric top.
 Rotational symmetry number  1.
 Rotational temperatures (Kelvin)     32.27815     0.46734     0.46067
 Rotational constants (GHZ):         672.56830     9.73774     9.59877
 Zero-point vibrational energy      82806.4 (Joules/Mol)
                                   19.79121 (Kcal/Mol)
 Warning -- explicit consideration of   3 degrees of freedom as
           vibrations may cause significant error
 Vibrational temperatures:    554.75   607.37   775.69   906.34  1553.41
          (Kelvin)           1807.48  3242.80  5040.37  5430.42
 
 Zero-point correction=                           0.031539 (Hartree/Particle)
 Thermal correction to Energy=                    0.035365
 Thermal correction to Enthalpy=                  0.036310
 Thermal correction to Gibbs Free Energy=         0.008144
 Sum of electronic and zero-point Energies=           -152.459438
 Sum of electronic and thermal Energies=              -152.455611
 Sum of electronic and thermal Enthalpies=            -152.454667
 Sum of electronic and thermal Free Energies=         -152.482833
 
                     E (Thermal)             CV                S
                      KCal/Mol        Cal/Mol-Kelvin    Cal/Mol-Kelvin
 Total                   22.192             11.490             59.279
 Electronic               0.000              0.000              0.000
 Translational            0.889              2.981             37.133
 Rotational               0.889              2.981             19.175
 Vibrational             20.415              5.529              2.971
 Vibration     1          0.754              1.501              1.017
 Vibration     2          0.784              1.422              0.885
 Vibration     3          0.894              1.164              0.567
                       Q            Log10(Q)             Ln(Q)
 Total Bot       0.179468D-03         -3.746013         -8.625514
 Total V=0       0.576800D+11         10.761025         24.778176
 Vib (Bot)       0.484429D-14        -14.314770        -32.960976
 Vib (Bot)    1  0.467094D+00         -0.330596         -0.761226
 Vib (Bot)    2  0.415266D+00         -0.381674         -0.878837
 Vib (Bot)    3  0.294112D+00         -0.531487         -1.223794
 Vib (V=0)       0.155693D+01          0.192268          0.442714
 Vib (V=0)    1  0.118423D+01          0.073438          0.169096
 Vib (V=0)    2  0.114996D+01          0.060682          0.139726
 Vib (V=0)    3  0.108009D+01          0.033459          0.077042
 Electronic      0.100000D+01          0.000000          0.000000
 Translational   0.107027D+08          7.029493         16.186006
 Rotational      0.346150D+04          3.539264          8.149456
 
                                                               Ethynol
                                                             IR Spectrum
 
     3         3                                         2                                1     1                                    
     7         5                                         2                                2     0              6  5   4 3            
     7         0                                         5                                5     8              3  3   2 8            
     4         3                                         4                                6     0              0  9   2 6            
 
     X         X                                         X                                X     X              X  X   X X            
     X         X                                         X                                X     X              X  X     X            
     X         X                                         X                                X     X              X  X                  
     X         X                                         X                                X     X              X  X                  
     X         X                                         X                                X     X              X  X                  
     X         X                                         X                                X     X              X  X                  
     X         X                                         X                                X     X              X  X                  
     X         X                                         X                                X     X              X  X                  
     X         X                                         X                                X     X                 X                  
     X         X                                         X                                X     X                                    
     X         X                                         X                                X     X                                    
     X         X                                         X                                X     X                                    
     X         X                                         X                                X     X                                    
     X                                                   X                                                                           
     X                                                   X                                                                           
     X                                                   X                                                                           
     X                                                   X                                                                           
                                                         X                                                                           
                                                         X                                                                           
                                                         X                                                                           
 
 Forces in standard orientation:
 -------------------------------------------------------------------
 Center     Atomic                   Forces (Hartrees/Bohr)
 Number     Number              X              Y              Z
 -------------------------------------------------------------------
      1        6          -0.000000068    0.000001919   -0.000000000
      2        6           0.000000039   -0.000001403   -0.000000000
      3        8           0.000000431    0.000000278    0.000000000
      4        1           0.000000002   -0.000000445   -0.000000000
      5        1          -0.000000402   -0.000000350   -0.000000000
 -------------------------------------------------------------------
 ***** Axes restored to original set *****
 Rotating derivatives, DoTrsp=F IDiff=-2 LEDeriv=    772 LFDPrp=       0 LDFDPr=       0.
 -------------------------------------------------------------------
 Center     Atomic                   Forces (Hartrees/Bohr)
 Number     Number              X              Y              Z
 -------------------------------------------------------------------
      1        6          -0.000001887    0.000000353   -0.000000015
      2        6           0.000001381   -0.000000249    0.000000017
      3        8          -0.000000325   -0.000000319   -0.000000235
      4        1           0.000000439   -0.000000070    0.000000011
      5        1           0.000000392    0.000000284    0.000000222
 -------------------------------------------------------------------
 Cartesian Forces:  Max     0.000001887 RMS     0.000000653
 Z-matrix is all fixed cartesians, so copy forces.
 Force constants in Cartesian coordinates: 
                1             2             3             4             5 
      1  0.145765D+01
      2 -0.234310D+00  0.726933D-01
      3  0.317046D-01 -0.626812D-03  0.303786D-01
      4 -0.101879D+01  0.161261D+00 -0.231134D-01  0.150803D+01
      5  0.162289D+00 -0.505333D-01  0.333259D-02 -0.228584D+00  0.115808D+00
      6 -0.224829D-01  0.320655D-02 -0.243159D-01  0.372252D-01  0.567284D-02
      7 -0.280166D-01  0.685415D-02  0.160709D-04 -0.444887D+00  0.941823D-01
      8 -0.202658D-03  0.566746D-02 -0.314580D-03  0.593896D-01 -0.699998D-01
      9 -0.431119D-02  0.550446D-03  0.594903D-02 -0.146288D-01 -0.139321D-01
     10 -0.414368D+00  0.665516D-01 -0.873247D-02  0.239449D-02 -0.774985D-03
     11  0.673497D-01 -0.264406D-01 -0.169913D-02 -0.286222D-02 -0.374745D-02
     12 -0.824310D-02 -0.179696D-02 -0.123188D-01 -0.719173D-03  0.132106D-02
     13  0.352265D-02 -0.356905D-03  0.125184D-03 -0.467486D-01 -0.271124D-01
     14  0.487363D-02 -0.138684D-02 -0.692063D-03  0.107958D-01  0.847235D-02
     15  0.333257D-02 -0.133322D-02  0.306973D-03  0.123616D-02  0.360564D-02
                6             7             8             9            10 
      6  0.689044D-01
      7  0.670629D-02  0.606969D+00
      8 -0.181970D-01  0.801494D-01  0.323699D+00
      9 -0.387888D-01  0.121757D+00  0.199346D+00  0.151796D+00
     10  0.560728D-03  0.289432D-02  0.482561D-03 -0.116869D-03  0.409054D+00
     11  0.106520D-02  0.359640D-03  0.693475D-02  0.456781D-03 -0.662548D-01
     12 -0.533480D-02 -0.192245D-03  0.471849D-03  0.652750D-02  0.835570D-02
     13 -0.220093D-01 -0.136959D+00 -0.139819D+00 -0.102700D+00  0.247164D-04
     14  0.825244D-02 -0.181545D+00 -0.266301D+00 -0.186422D+00 -0.444129D-05
     15 -0.464935D-03 -0.128287D+00 -0.181307D+00 -0.125484D+00 -0.670923D-04
               11            12            13            14            15 
     11  0.230579D-01
     12  0.221921D-03  0.106119D-01
     13  0.140766D-02  0.798816D-03  0.180160D+00
     14  0.195427D-03 -0.217867D-03  0.165881D+00  0.259021D+00
     15 -0.447710D-04  0.514155D-03  0.123785D+00  0.179079D+00  0.125128D+00
 Final forces over variables, Energy=-1.52490977D+02:
 -1.88742003D-06 1.38126194D-06-3.25199043D-07 4.39043855D-07
  3.92313190D-07 3.53151964D-07-2.48737359D-07-3.18843664D-07
 -6.98473111D-08 2.84276386D-07-1.48063072D-08 1.67887516D-08
 -2.35379190D-07 1.09874738D-08 2.22409270D-07
 Leave Link  716 at Sat Nov 12 21:52:51 2022, MaxMem=   939524096 cpu:         0.1
 (Enter /Local/ce_dana/g09/l103.exe)

 GradGradGradGradGradGradGradGradGradGradGradGradGradGradGradGradGradGrad
 Berny optimization.
 Search for a local minimum.
 Step number   1 out of a maximum of    2
 All quantities printed in internal units (Hartrees-Bohrs-Radians)
 Second derivative matrix not updated -- analytic derivatives used.
 The second derivative matrix:
                          X1        Y1        Z1        X2        Y2
           X1           1.45765
           Y1          -0.23431   0.07269
           Z1           0.03170  -0.00063   0.03038
           X2          -1.01879   0.16126  -0.02311   1.50803
           Y2           0.16229  -0.05053   0.00333  -0.22858   0.11581
           Z2          -0.02248   0.00321  -0.02432   0.03723   0.00567
           X3          -0.02802   0.00685   0.00002  -0.44489   0.09418
           Y3          -0.00020   0.00567  -0.00031   0.05939  -0.07000
           Z3          -0.00431   0.00055   0.00595  -0.01463  -0.01393
           X4          -0.41437   0.06655  -0.00873   0.00239  -0.00077
           Y4           0.06735  -0.02644  -0.00170  -0.00286  -0.00375
           Z4          -0.00824  -0.00180  -0.01232  -0.00072   0.00132
           X5           0.00352  -0.00036   0.00013  -0.04675  -0.02711
           Y5           0.00487  -0.00139  -0.00069   0.01080   0.00847
           Z5           0.00333  -0.00133   0.00031   0.00124   0.00361
                          Z2        X3        Y3        Z3        X4
           Z2           0.06890
           X3           0.00671   0.60697
           Y3          -0.01820   0.08015   0.32370
           Z3          -0.03879   0.12176   0.19935   0.15180
           X4           0.00056   0.00289   0.00048  -0.00012   0.40905
           Y4           0.00107   0.00036   0.00693   0.00046  -0.06625
           Z4          -0.00533  -0.00019   0.00047   0.00653   0.00836
           X5          -0.02201  -0.13696  -0.13982  -0.10270   0.00002
           Y5           0.00825  -0.18155  -0.26630  -0.18642  -0.00000
           Z5          -0.00046  -0.12829  -0.18131  -0.12548  -0.00007
                          Y4        Z4        X5        Y5        Z5
           Y4           0.02306
           Z4           0.00022   0.01061
           X5           0.00141   0.00080   0.18016
           Y5           0.00020  -0.00022   0.16588   0.25902
           Z5          -0.00004   0.00051   0.12379   0.17908   0.12513
 ITU=  0
     Eigenvalues ---    0.02103   0.02238   0.04654   0.08405   0.15802
     Eigenvalues ---    0.33524   0.75867   1.05357   2.64702
 Angle between quadratic step and forces=  73.16 degrees.
 ClnCor:  largest displacement from symmetrization is 6.98D-15 for atom     2.
 Linear search not attempted -- first point.
 ClnCor:  largest displacement from symmetrization is 8.38D-16 for atom     5.
 TrRot= -0.000000  0.000000  0.000000  0.000000 -0.000000  0.000000
 Variable       Old X    -DE/DX   Delta X   Delta X   Delta X     New X
                                 (Linear)    (Quad)   (Total)
    X1        2.10300  -0.00000   0.00000  -0.00000  -0.00000   2.10300
    Y1       -0.10125   0.00000   0.00000   0.00000   0.00000  -0.10125
    Z1       -0.16695  -0.00000   0.00000  -0.00000   0.00000  -0.16695
    X2       -0.13937   0.00000   0.00000   0.00000  -0.00000  -0.13937
    Y2        0.25949  -0.00000   0.00000   0.00000   0.00000   0.25949
    Z2       -0.22061   0.00000   0.00000   0.00000   0.00000  -0.22061
    X3       -2.55919  -0.00000   0.00000  -0.00000  -0.00000  -2.55919
    Y3        0.78106  -0.00000   0.00000  -0.00000   0.00000   0.78106
    Z3       -0.19741  -0.00000   0.00000  -0.00000   0.00000  -0.19741
    X4        4.07813   0.00000   0.00000  -0.00000  -0.00000   4.07813
    Y4       -0.43068  -0.00000   0.00000  -0.00000  -0.00000  -0.43068
    Z4       -0.12685   0.00000   0.00000  -0.00000  -0.00000  -0.12685
    X5       -3.48257   0.00000   0.00000   0.00000   0.00000  -3.48257
    Y5       -0.50862   0.00000   0.00000  -0.00000  -0.00000  -0.50862
    Z5       -1.10143   0.00000   0.00000  -0.00000  -0.00000  -1.10143
         Item               Value     Threshold  Converged?
 Maximum Force            0.000002     0.000450     YES
 RMS     Force            0.000001     0.000300     YES
 Maximum Displacement     0.000003     0.001800     YES
 RMS     Displacement     0.000001     0.001200     YES
 Predicted change in Energy=-1.792731D-12
 Optimization completed.
    -- Stationary point found.
 GradGradGradGradGradGradGradGradGradGradGradGradGradGradGradGradGradGrad

 Leave Link  103 at Sat Nov 12 21:52:51 2022, MaxMem=   939524096 cpu:         0.0
 (Enter /Local/ce_dana/g09/l9999.exe)

 Test job not archived.
 1\1\GINC-TECH-WN093\Freq\RB2PLYPD3-FC\def2TZVP\C2H2O1\ALONGD\12-Nov-20
 22\0\\#P guess=read b2plypd3/def2tzvp freq IOp(7/33=1) scf=(tight, dir
 ect) integral=(grid=ultrafine, Acc2E=12) IOp(2/9=2000) scf=xqc\\Ethyno
 l\\0,1\C,1.1128579998,-0.0535800011,-0.0883469982\C,-0.0737520168,0.13
 73159159,-0.1167438628\O,-1.3542629927,0.4133190364,-0.1044630593\H,2.
 1580520385,-0.2279078075,-0.0671253139\H,-1.8428969945,-0.2691489722,-
 0.5828520453\\Version=ES64L-G09RevD.01\State=1-A'\HF=-152.3143851\MP2=
 -152.4909768\RMSD=8.588e-09\RMSF=6.533e-07\ZeroPoint=0.0315393\Thermal
 =0.0353655\Dipole=-0.3471859,-0.479955,-0.3368684\DipoleDeriv=-0.60061
 79,0.05071,0.0027974,0.0439575,-0.3298045,0.0298916,-0.0013432,0.03071
 94,-0.3510913,1.3597066,-0.2226502,0.0255131,-0.2451685,-0.0079226,-0.
 0580732,0.0117048,-0.0553129,0.0052891,-1.3579035,0.130133,-0.0507711,
 0.1585267,-0.1635712,0.0986331,-0.03336,0.0951526,-0.2384716,0.2224947
 ,0.0032974,-0.0008959,-0.0035065,0.2235537,-0.0143771,-0.0050681,-0.01
 35431,0.2373727,0.3763201,0.0385097,0.0233565,0.0461908,0.2777446,-0.0
 560745,0.0280666,-0.057016,0.3469012\Polar=39.0803748,-2.511764,17.864
 9103,1.1701584,0.2412995,17.2607034\PG=CS [SG(C2H2O1)]\NImag=0\\1.4576
 4905,-0.23431014,0.07269333,0.03170459,-0.00062681,0.03037861,-1.01878
 749,0.16126126,-0.02311338,1.50802882,0.16228949,-0.05053333,0.0033325
 9,-0.22858443,0.11580822,-0.02248286,0.00320655,-0.02431585,0.03722516
 ,0.00567284,0.06890442,-0.02801662,0.00685415,0.00001607,-0.44488718,0
 .09418235,0.00670629,0.60696857,-0.00020266,0.00566746,-0.00031458,0.0
 5938958,-0.06999979,-0.01819703,0.08014936,0.32369906,-0.00431119,0.00
 055045,0.00594903,-0.01462877,-0.01393212,-0.03878883,0.12175680,0.199
 34643,0.15179610,-0.41436759,0.06655163,-0.00873247,0.00239449,-0.0007
 7499,0.00056073,0.00289432,0.00048256,-0.00011687,0.40905406,0.0673496
 9,-0.02644062,-0.00169913,-0.00286222,-0.00374745,0.00106520,0.0003596
 4,0.00693475,0.00045678,-0.06625477,0.02305789,-0.00824310,-0.00179696
 ,-0.01231876,-0.00071917,0.00132106,-0.00533480,-0.00019224,0.00047185
 ,0.00652750,0.00835570,0.00022192,0.01061190,0.00352265,-0.00035690,0.
 00012518,-0.04674864,-0.02711242,-0.02200932,-0.13695909,-0.13981884,-
 0.10269997,0.00002472,0.00140766,0.00079882,0.18016036,0.00487363,-0.0
 0138684,-0.00069206,0.01079581,0.00847235,0.00825244,-0.18154550,-0.26
 630148,-0.18642154,-0.00000444,0.00019543,-0.00021787,0.16588050,0.259
 02054,0.00333257,-0.00133322,0.00030697,0.00123616,0.00360564,-0.00046
 494,-0.12828692,-0.18130667,-0.12548380,-0.00006709,-0.00004477,0.0005
 1415,0.12378528,0.17907903,0.12512761\\0.00000189,-0.00000035,0.000000
 01,-0.00000138,0.00000025,-0.00000002,0.00000033,0.00000032,0.00000024
 ,-0.00000044,0.00000007,-0.00000001,-0.00000039,-0.00000028,-0.0000002
 2\\\@


 THE WISE MAN HAS THE POWER TO REASON AWAY
 WHAT A FOOL BELIEVES.
                     - DOOBIE BROTHERS
 Job cpu time:       0 days  0 hours  8 minutes 45.5 seconds.
 File lengths (MBytes):  RWF=    687 Int=      0 D2E=      0 Chk=      2 Scr=      1
 Normal termination of Gaussian 09 at Sat Nov 12 21:52:51 2022.
