
 Working directory              : /var/lib/condor/execute/dir_5245/molpro.xRhfnF7AOe/
 Global scratch directory       : /var/lib/condor/execute/dir_5245/molpro.xRhfnF7AOe/
 Wavefunction directory         : /srv01/technion/alongd/wfu/
 Main file repository           : /var/lib/condor/execute/dir_5245/molpro.xRhfnF7AOe/

 id        : dana

 Nodes     nprocs
 tech-wn083    9
 Distribution of processes:   nprocs(total)=   10   nprocs(compute)=    9   nprocs(helper)=    1
 GA implementation: MPI file
 GA implementation (serial work in mppx): MPI file

 Using customized tuning parameters: mindgm=1; mindgv=20; mindgc=4; mindgr=1; noblas=0; minvec=7
 default implementation of scratch files=sf  


 Variables initialized (1009), CPU time= 0.01 sec
 ***,Ethynol
 memory,90,m;
 file,1,file1.int                                                                !allocate permanent integral file
 file,2,file2.wfu                                                                !allocate permanent wave-function (dump) file
 
 geometry={angstrom;
 C       1.11285800   -0.05358000   -0.08834700
 C      -0.07375200    0.13731600   -0.11674400
 O      -1.35426300    0.41331900   -0.10446300
 H       2.15805200   -0.22790800   -0.06712500
 H      -1.84289700   -0.26914900   -0.58285200}
 
 basis=cc-pvtz-f12
 
 
 
 int;
 {hf;
 maxit,1000;
 wf,spin=0,charge=0;}
 
 ccsd(t)-f12;
 
 
 
 Commands initialized (810), CPU time= 0.01 sec, 661 directives.
 Default parameters read. Elapsed time= 0.16 sec

 Checking input...
 Passed
1


                                         ***  PROGRAM SYSTEM MOLPRO  ***
                                       Copyright, TTI GmbH Stuttgart, 2015
                                    Version 2021.2 linked Jul 16 2021 12:17:16


 **********************************************************************************************************************************
 LABEL *   Ethynol                                                                       
  64 bit mpp version                                                                     DATE: 12-Nov-22          TIME: 21:51:16  
 **********************************************************************************************************************************

 SHA1:             dade016a989826d9d859d6207854b99675d53db3
 **********************************************************************************************************************************

 Memory per process:        90 MW
 Total memory per node:    810 MW

 GA preallocation disabled
 GA check disabled

 Variable memory set to 90.0 MW



 Permanent file  1  file1.int        assigned.  Implementation=df  
 Permanent file  2  file2.wfu        assigned.  Implementation=df    Size= 18.65 MB


 PROGRAM * RESTART 


 Reading variables from file 2

 _FNUC           =      0.00000000
 _BASIS          =    CC-PVTZ-F12
 _NELEC          =     17.00000000
 _PROGRAM        =    UCCSD(T)-F12
 _DMX_SCF        =     -0.42093239
 _DMY_SCF        =      0.76823847
 _DMZ_SCF        =     -0.24091783
 _HOMO           =      9.10000000
 _EHOMO          =     -0.38666721
 _LUMO           =     10.10000000
 _ELUMO          =      0.06711184
 _EMP2           =   -111.04895451
 _EMP2_SING      =     -0.26935376
 _EMP2_TRIP      =     -0.15070063
 _EMP2_SINGLES   =     -0.00424716
 _EMP2_SCS       =   -111.04580852
 _ECSING(1:2)    =     -0.32595887    -0.31996146
 _ECTRIP(1:2)    =     -0.14040300    -0.13996165
 _ECTRIPAB(1:2)  =     -0.04604182    -0.04589467
 _ECTRIPAA(1:2)  =     -0.05241435    -0.05224119
 _ECTRIPBB(1:2)  =     -0.04194683    -0.04182579
 _ECSINGLES      =     -0.00459279
 _EF12           =     -0.03575369
 _EF12_SING      =     -0.03206617
 _EF12_TRIP      =     -0.00368751
 _ECSING_F12(1:2)=     -0.03162856    -0.02563115
 _ECTRIP_F12(1:2)=     -0.00354597    -0.00310462
 _ECTRIPAB_F12(1:2)   =     -0.00118323    -0.00103609
 _ECTRIPAA_F12(1:2)   =     -0.00142865    -0.00125550
 _ECTRIPBB_F12(1:2)   =     -0.00093408    -0.00081304
 _EF12_RHFRELAX  =     -0.00123486
 _EF12_CONVSUPPRS=     -0.00043897
 _EF12_CONVSUPPRT=     -0.00013803
 _EF12_SINGLES   =     -0.00125118
 _EF12_SCS       =     -0.04077385
 _EF12S          =     -0.03548761
 _EF12S_SING     =     -0.03193113
 _EF12S_TRIP     =     -0.00355648
 _EF12S_SCS      =     -0.04053079
 _EF12D          =     -0.03555124
 _EF12D_SING     =     -0.03199023
 _EF12D_TRIP     =     -0.00356101
 _EF12D_SCS      =     -0.04060450
 _EF12F          =     -0.03703261
 _EF12F_SING     =     -0.03336182
 _EF12F_TRIP     =     -0.00367078
 _EF12F_SCS      =     -0.04231889
 _ENERGC(1:2)    =   -111.09560778  -111.08916902
 _ENERG_CC(1:2)  =      0.00000000     0.00000000
 _ENERG_CV(1:2)  =      0.00000000     0.00000000
 _ENERG_VV(1:2)  =     -0.47095466    -0.46451590
 _ENERGR         =   -110.62465312
 _ENERGT(1:6)    =   -111.11312047  -111.11391759  -111.11296255  -111.10668171  -111.10747883  -111.10652380
 _ENERGY(1:2)    =   -111.11312047  -111.10668171
 _ENERGY_METHOD  =    UCCSD(T)-F12
 _ENERGY_BASIS   =    cc-pVTZ-F12
 _ENUC           =     36.57642347
 _IPROC_MPP      =      0.00000000
 _IPROC_MPPX     =      0.00000000
 _ORBITAL        =   2101.20000000
 _ECDIAG(1:2)    =     -0.09782152    -0.09605768
 _EPDIAG(1:2)    =     -0.09782152    -0.09605768
 _STATUS         =      1.00000000
 _T1DIAG         =      0.02506125
 _D1DIAG         =      0.08315820
 _D2DIAG         =      0.15515358
 !DFBASIS_MP2    =    CC-PVTZ-F12-MP2FIT
 !DFBASIS_F12K   =    VTZ-F12-JKFIT
 !RIBASIS_MP2    =    CC-PVTZ-F12_OPT
 !RIBASIS_EXCH   =     
 _METHODC        =    UCCSD-F12a
 _METHODC        =    UCCSD-F12b
 _METHODT        =    UCCSD(T)-F12a
 _METHODT        =    UCCSD[T]-F12a
 _METHODT        =    UCCSD-T-F12a
 _METHODT        =    UCCSD(T)-F12b
 _METHODT        =    UCCSD[T]-F12b
 _METHODT        =    UCCSD-T-F12b
 _OUTPUT         =    /storage/ce_dana/alongd/runs/ARC/arkane_examples/thermo3/calcs/Species/Ethynol/sp_a48600/input.out
 _PGROUP         =    C1  
 _TIME           =    20:17:33
 _ANSATZ         =    F12/3C(FIX)
 _SVDDEL         =      0.00000000
 _SYM_CATION     =      1.00000000

 Geometry written to block  1 of record 701


 **********************************************************************************************************************************
 DATASETS  * FILE   NREC   LENGTH (MB)   RECORD NAMES
              1       2       11.48       500      701   
                                          VAR     GEOM   

              2      11       18.65       500      610      700     1000      520     2100     7360     7350      701     1001   
                                          VAR    BASINP    GEOM     BASIS   MCVARS     RHF    F12ABS    EF12     GEOM     BASIS   
                                         2101   
                                          RHF  

 PROGRAMS   *        TOTAL   RESTART
 CPU TIMES  *         0.61      0.45
 REAL TIME  *         0.88 SEC
 DISK USED  *        30.13 MB (local),      271.16 MB (total)
 **********************************************************************************************************************************

 Geometry recognized as XYZ

 SETTING BASIS          =    CC-PVTZ-F12


 Using spherical harmonics

 Library entry C      S cc-pVTZ-F12          selected for orbital group  1
 Library entry C      P cc-pVTZ-F12          selected for orbital group  1
 Library entry C      D cc-pVTZ-F12          selected for orbital group  1
 Library entry C      F cc-pVTZ-F12          selected for orbital group  1
 Library entry O      S cc-pVTZ-F12          selected for orbital group  2
 Library entry O      P cc-pVTZ-F12          selected for orbital group  2
 Library entry O      D cc-pVTZ-F12          selected for orbital group  2
 Library entry O      F cc-pVTZ-F12          selected for orbital group  2
 Library entry H      S cc-pVTZ-F12          selected for orbital group  3
 Library entry H      P cc-pVTZ-F12          selected for orbital group  3
 Library entry H      D cc-pVTZ-F12          selected for orbital group  3


 PROGRAM * SEWARD (Integral evaluation for generally contracted gaussian basis sets)     Author: Roland Lindh, 1990

 Geometry written to block  1 of record 700


 Point group  C1  



 ATOMIC COORDINATES

 NR  ATOM    CHARGE       X              Y              Z

   1  C       6.00    2.102996836   -0.101251526   -0.166951634
   2  C       6.00   -0.139371081    0.259489633   -0.220614187
   3  O       8.00   -2.559186171    0.781059712   -0.197406460
   4  H       1.00    4.078127243   -0.430683702   -0.126847866
   5  H       1.00   -3.482570606   -0.508617897   -1.101430651

 Bond lengths in Bohr (Angstrom)

 1-2  2.271833561  1-4  2.002816516  2-3  2.475495711  3-5  1.825696275
     ( 1.202202547)     ( 1.059844858)     ( 1.309975916)     ( 0.966116863)

 Bond angles

  1-2-3  176.43348292   2-1-4  179.61093077   2-3-5  109.93283996

 NUCLEAR CHARGE:                   22
 NUMBER OF PRIMITIVE AOS:         258
 NUMBER OF SYMMETRY AOS:          229
 NUMBER OF CONTRACTIONS:          195   (  195A   )
 NUMBER OF INNER CORE ORBITALS:     0   (    0A   )
 NUMBER OF OUTER CORE ORBITALS:     3   (    3A   )
 NUMBER OF VALENCE ORBITALS:       14   (   14A   )

 MOLECULE CHANGED: INITIALIZING OCCUPATION AND DUMP RECORDS


 NUCLEAR REPULSION ENERGY   58.20114233


 Eigenvalues of metric

         1 0.139E-04 0.748E-04 0.119E-03 0.154E-03 0.187E-03 0.213E-03 0.220E-03 0.293E-03


 Contracted 2-electron integrals neglected if value below      1.0D-12
 AO integral compression algorithm  1   Integral accuracy      1.0D-12

     940.311 MB (compressed) written to integral file ( 53.8%)

     Node minimum: 86.770 MB, node maximum: 122.421 MB


 NUMBER OF SORTED TWO-ELECTRON INTEGRALS:   20291634.     BUFFER LENGTH:  32768
 NUMBER OF SEGMENTS:   2  SEGMENT LENGTH:   15997995      RECORD LENGTH: 524288

 Memory used in sort:      16.56 MW

 SORT1 READ   218474958. AND WROTE    19380999. INTEGRALS IN     56 RECORDS. CPU TIME:    11.08 SEC, REAL TIME:    13.59 SEC
 SORT2 READ   174663638. AND WROTE   182605605. INTEGRALS IN   3609 RECORDS. CPU TIME:     0.83 SEC, REAL TIME:     5.57 SEC

 Node minimum:    20281019.  Node maximum:    20298006. integrals

 OPERATOR DM      FOR CENTER  0  COORDINATES:    0.000000    0.000000    0.000000


 **********************************************************************************************************************************
 DATASETS  * FILE   NREC   LENGTH (MB)   RECORD NAMES
              1      19       30.23       500      701      610      700      900      950      970     1000      129      960   
                                          VAR     GEOM    BASINP    GEOM    SYMINP    ZMAT    AOBASIS   BASIS     P2S    ABASIS    
                                         1100     1400     1410     1200     1210     1080     1600     1650     1700   
                                           S        T        V       H0       H01     AOSYM     SMH    MOLCAS    OPER   

              2      11       18.65       500      610      700     1000      520     2100     7360     7350      701     1001   
                                          VAR    BASINP    GEOM     BASIS   MCVARS     RHF    F12ABS    EF12     GEOM     BASIS   
                                         2101   
                                          RHF  

 PROGRAMS   *        TOTAL       INT   RESTART
 CPU TIMES  *        14.22     13.60      0.45
 REAL TIME  *        27.15 SEC
 DISK USED  *        48.95 MB (local),        3.24 GB (total)
 GA USED    *         0.00 MB       (max)       0.00 MB       (current)
 **********************************************************************************************************************************


 Program * Restricted Hartree-Fock

 Orbital guess generated from atomic densities. Full valence occupancy:   17

 Initial occupancy:  11

 NELEC=   22   SYM=1   MS2= 0   THRE=1.0D-08   THRD=3.2D-06   THRG=3.2D-06  HFMA2=F  DIIS_START=2   DIIS_MAX=10   DIIS_INCORE=F

 Level shifts:    0.00 (CLOSED)    0.00 (OPEN)    0.30 (GAP_MIN)

 ITER           ETOT              DE          GRAD        DDIFF     DIIS  NEXP   TIME(IT)  TIME(TOT)  DIAG
   1     -151.69297658    -151.69297658     0.00D+00     0.47D-01     0     0       0.22      0.47    start
   2     -151.72744174      -0.03446517     0.49D-02     0.52D-02     1     0       0.21      0.68    diag
   3     -151.73731461      -0.00987287     0.24D-02     0.21D-02     2     0       0.25      0.93    diag
   4     -151.73829507      -0.00098046     0.65D-03     0.58D-03     3     0       0.23      1.16    diag
   5     -151.73841591      -0.00012084     0.20D-03     0.22D-03     4     0       0.22      1.38    diag
   6     -151.73842879      -0.00001288     0.59D-04     0.69D-04     5     0       0.23      1.61    diag
   7     -151.73843143      -0.00000264     0.23D-04     0.29D-04     6     0       0.26      1.87    diag
   8     -151.73843215      -0.00000072     0.90D-05     0.13D-04     7     0       0.23      2.10    diag
   9     -151.73843240      -0.00000025     0.42D-05     0.96D-05     8     0       0.22      2.32    diag
  10     -151.73843244      -0.00000004     0.17D-05     0.47D-05     9     0       0.21      2.53    diag/orth
  11     -151.73843244      -0.00000000     0.36D-06     0.88D-06     9     0       0.20      2.73    diag
  12     -151.73843244      -0.00000000     0.68D-07     0.76D-07     0     0       0.23      2.96    diag

 Final occupancy:  11

 !RHF STATE 1.1 Energy               -151.738432439833
  RHF One-electron energy            -321.410952175876
  RHF Two-electron energy             111.471377410427
  RHF Kinetic energy                  151.503573690960
  RHF Nuclear energy                   58.201142325616
  RHF Virial quotient                  -1.001550186198

 !RHF STATE 1.1 Dipole moment          -0.28013998    -0.49241384    -0.33628956
 Dipole moment /Debye                  -0.71204481    -1.25159114    -0.85476280

 Orbital energies:

           1.1          2.1          3.1          4.1          5.1          6.1          7.1          8.1          9.1         10.1
    -20.638096   -11.299029   -11.222906    -1.452328    -1.022748    -0.823723    -0.708464    -0.667249    -0.624757    -0.396077

          11.1         12.1         13.1
     -0.378722     0.042781     0.051131


 HOMO     11.1    -0.378722 =     -10.3055eV
 LUMO     12.1     0.042781 =       1.1641eV
 LUMO-HOMO         0.421503 =      11.4697eV

 Orbitals saved in record  2100.2


 **********************************************************************************************************************************
 DATASETS  * FILE   NREC   LENGTH (MB)   RECORD NAMES
              1      19       30.23       500      701      610      700      900      950      970     1000      129      960   
                                          VAR     GEOM    BASINP    GEOM    SYMINP    ZMAT    AOBASIS   BASIS     P2S    ABASIS    
                                         1100     1400     1410     1200     1210     1080     1600     1650     1700   
                                           S        T        V       H0       H01     AOSYM     SMH    MOLCAS    OPER   

              2      11       18.65       500      610      700     1000      520     2100     7360     7350      701     1001   
                                          VAR    BASINP    GEOM     BASIS   MCVARS     RHF    F12ABS    EF12     GEOM     BASIS   
                                         2101   
                                          RHF  

 PROGRAMS   *        TOTAL    HF-SCF       INT   RESTART
 CPU TIMES  *        17.27      3.02     13.60      0.45
 REAL TIME  *        30.65 SEC
 DISK USED  *        51.57 MB (local),        3.26 GB (total)
 GA USED    *         0.00 MB       (max)       0.00 MB       (current)
 **********************************************************************************************************************************


 PROGRAM * CCSD (Closed-shell coupled cluster)     Authors: C. Hampel, H.-J. Werner, 1991, M. Deegan, P.J. Knowles, 1992

                                  CCSD-F12 implementation by  H.-J. Werner, 2007

                   Density fitting integral evaluation by F.R. Manby, 2003,2007, G. Knizia, 2010


 Basis set VTZ-F12/JKFIT generated.      Number of basis functions:   404 
 Basis set CC-PVTZ-F12/OPTRI generated.  Number of basis functions:   307 
 Basis set CC-PVTZ-F12/MP2FIT generated. Number of basis functions:   410 

 Convergence thresholds:  THRVAR = 1.00D-08  THRDEN = 1.00D-06

 CCSD(T)     terms to be evaluated (factor= 1.000)


 Number of core orbitals:           3 (   3 )
 Number of closed-shell orbitals:   8 (   8 )
 Number of external orbitals:     184 ( 184 )

 Molecular orbitals read from record     2100.2  Type=RHF/CANONICAL  

 MP2-F12 correlation treatment (H.-J. Werner, 2006)
 ==================================================

 Using MP2-F12 with ansatz 3C(FIX)

 Using projected zeroth-order Hamiltonian (+Z)

 FOCKRIB=T FOCKRIC=T FOCKRIP=T CABSP=T CABSA=T CABSK=T CABSF=T GBC=F EBC=F DMAT=T NOFIK=T NOPAO=1 SOLVE=-1  USEPAO=0
 EXCH_A= T EXCH_B= F EXCH_C= F EXCH_P= F

 Geminal basis:    OPTFULL  GEM_TYPE=SLATER  BETA=1.0  NGEM=6

 Optimizing Gaussian exponents for each gem_beta

 Geminal optimization for beta= 1.0000
 Weight function:   m=0, omega= 1.4646

 Augmented Hessian optimization of geminal fit. Trust ratio= 0.40000
 Convergence reached after   2 iterations. Final gradient= 9.01D-16, Step= 4.09D-06, Delta= 1.28D-09

 Alpha:                 0.19532     0.81920     2.85917     9.50073    35.69989   197.79328
 Coeff:                 0.27070     0.30552     0.18297     0.10986     0.06810     0.04224


 All pairs explicitly correlated. Number of r12-pairs:           36

 Excluding core orbitals from MO domains

 AO(A)-basis ORBITAL           loaded. Number of functions:     195
 RI(R)-basis CC-PVTZ-F12/OPTRI loaded. Number of functions:     307
 DF-basis VTZ-F12/JKFIT        loaded. Number of functions:     404

 Screening thresholds:   THRAO=  1.00D-10  THRMO=  1.00D-09  THRPROD=  1.00D-09
                         THRSW=  1.00D-05  THROV=  1.00D-12  THRAOF12= 1.00D-08

 CPU time for Fock operators                      0.36 sec

 Construction of ABS:
 Smallest eigenvalue of S          7.82E-05  (threshold= 1.00E-08)
 Ratio eigmin/eigmax               1.13E-05  (threshold= 1.00E-09)
 Smallest eigenvalue of S kept     7.82E-05  (threshold= 7.82E-05, 0 functions deleted, 307 kept)

 Construction of CABS:
 Smallest eigenvalue of S          1.44E-07  (threshold= 1.00E-08)
 Ratio eigmin/eigmax               1.44E-07  (threshold= 1.00E-09)
 Smallest eigenvalue of S kept     1.44E-07  (threshold= 1.44E-07, 0 functions deleted, 307 kept)

 CPU time for CABS singles                        0.08 sec

 CABS-singles contribution of  -0.00126054 patched into reference energy.
 New reference energy        -151.73969298

 AO(A)-basis ORBITAL           loaded. Number of functions:     195
 RI(R)-basis CC-PVTZ-F12/OPTRI loaded. Number of functions:     307
 DF-basis CC-PVTZ-F12/MP2FIT   loaded. Number of functions:     410

 Screening thresholds:   THRAO=  1.00D-10  THRMO=  1.00D-09  THRPROD=  1.00D-09
                         THRSW=  1.00D-05  THROV=  1.00D-12  THRAOF12= 1.00D-08

 CPU time for 3-index integral evaluation         0.75 sec
 CPU time for first  half transformation          0.01 sec (32556.0 MFLOP/sec)
 CPU time for second half transformation          0.02 sec (  609.2 MFLOP/sec)
 CPU time for sorting                             0.03 sec
 CPU time for fitting                             0.01 sec (17986.7 MFLOP/sec)
 CPU time for tilde quantities                    0.05 sec ( 4834.6 MFLOP/sec)
 CPU time for assembly                            0.13 sec (14842.4 MFLOP/sec)
 CPU time for tranop_f12                          0.19 sec (13247.1 MFLOP/sec)
 CPU time for f12 integrals (total)               1.58 sec, Elapsed time:      4.08 sec
 F12-matrices built in  9 passes.
 F12-matrices built in  9 passes.
 F12-matrices built in  9 passes.
 F12-matrices built in  9 passes.
 FC-matrix built in  9 passes.
 CPU time for f12 matrices (total)                0.07 sec, Elapsed time:      0.09 sec

 Diagonal F12 approximation with fixed coefficients:  TSING= 0.500,  TTRIP= 0.250 (scaled by -1/beta)

 DF-MP2-F12 energy corrections:
 ==============================
 Approx.                                    Singlet             Triplet             Total
 DF-MP2-F12/3*C(DX,FIX)                -0.044595960702     -0.005097175956     -0.049693136659
 DF-MP2-F12/3*C(FIX)                   -0.042497964023     -0.004786651787     -0.047284615810
 DF-MP2-F12/3C(FIX)                    -0.042423838667     -0.004935045939     -0.047358884606

 DF-MP2-F12 correlation energies:
 ================================
 Approx.                                    Singlet             Triplet             Ecorr            Total Energy
 DF-MP2                                -0.352756965986     -0.210290869410     -0.563047835395   -152.302740813475
 DF-MP2-F12/3*C(DX,FIX)                -0.397352926688     -0.215388045366     -0.612740972054   -152.352433950133
 DF-MP2-F12/3*C(FIX)                   -0.395254930008     -0.215077521197     -0.610332451205   -152.350025429284
 DF-MP2-F12/3C(FIX)                    -0.395180804653     -0.215225915349     -0.610406720002   -152.350099698081

 SCS-DF-MP2 energies (F_SING= 1.20000  F_TRIP= 0.62222  F_PARALLEL= 0.33333):
 ============================================================================
 SCS-DF-MP2                            -0.554156011260   -152.293848989339
 SCS-DF-MP2-F12/3*C(DX,FIX)            -0.610842740253   -152.350535718332
 SCS-DF-MP2-F12/3*C(FIX)               -0.608131929199   -152.347824907278
 SCS-DF-MP2-F12/3C(FIX)                -0.608135312911   -152.347828290991
 Symmetry transformation completed.

 Number of N-1 electron functions:               8
 Number of N-2 electron functions:              36
 Number of singly external CSFs:              1472
 Number of doubly external CSFs:           1084128
 Total number of CSFs:                     1085601

 Pair and operator lists are different

 Length of J-op  integral file:             148.36 MB
 Length of K-op  integral file:             195.45 MB
 Length of 3-ext integral record:             0.00 MB

 Memory could be reduced to 68.59 Mwords without degradation in triples

 Integral transformation finished. Total CPU:   5.88 sec, npass=  1  Memory used:  36.67 MW

 Reference energy:                   -151.73969298

 Adding F12 terms to K(Cij), methodcc=6,  factor= 1.0

 ITER.      SQ.NORM     CORR.ENERGY   TOTAL ENERGY   ENERGY CHANGE        DEN1      VAR(S)    VAR(P)  DIIS     TIME  TIME/IT
   1      1.16111814    -0.56032647  -152.30001945     0.00274313     0.01848523  0.34D-02  0.32D-02  1  1     9.41     1.15
   2      1.17199707    -0.56034033  -152.30003331    -0.00001386    -0.01235044  0.68D-04  0.44D-03  2  2    10.54     1.21
   3      1.17678839    -0.56064842  -152.30034140    -0.00030809    -0.00234811  0.47D-04  0.51D-04  3  3    11.86     1.29
   4      1.17931511    -0.56069322  -152.30038619    -0.00004480    -0.00117985  0.33D-05  0.81D-05  4  4    13.12     1.32
   5      1.18007430    -0.56070762  -152.30040060    -0.00001440    -0.00020466  0.47D-06  0.11D-05  5  5    14.35     1.32
   6      1.18030976    -0.56070559  -152.30039857     0.00000203    -0.00003148  0.48D-07  0.74D-07  6  6    15.59     1.33
   7      1.18034385    -0.56070571  -152.30039869    -0.00000012    -0.00000635  0.83D-08  0.59D-08  6  1    16.84     1.34
   8      1.18034903    -0.56070612  -152.30039910    -0.00000041    -0.00000156  0.17D-08  0.69D-09  6  2    18.10     1.35

 Norm of t1 vector:      0.07617366      S-energy:     0.00000081      T1 diagnostic:  0.01346573
                                                                       D1 diagnostic:  0.03078742
                                                                       D2 diagnostic:  0.17516384 (internal)

 Doubles amplitudes (print threshold =  0.500E-01):

         I         J         SYM. A    SYM. B    A         B      T(IJ, AB)

         7         7         1         1        13        13     -0.05023342
         8         8         1         1        14        14     -0.05714720

 Adding energy correction from Wij-K(Fij), methodcc=6  factor= 1.0

  CCSD correlation energy              -0.560706123820
  MP2-F12 correction (uncoupled)       -0.045636082445
  C*T doubles correction               -0.001237410161
  f12b correction                       0.008374878535


 Total CPU time for triples:     15.36 sec


 RESULTS
 =======

  Reference energy                   -151.738432439833
  F12 singles correction               -0.001260538246

 F12 singles corrections added to reference energy

  New reference energy               -151.739692978079

  F12a singlet correction              -0.042101979721
  F12a triplet correction              -0.004771512884
  F12a total correction                -0.046873492606

 F12a corrections for ansatz F12/3C(FIX) added to CCSD energy

  CCSD-F12a singlet pair energy        -0.419417473237
  CCSD-F12a triplet pair energy        -0.188162956745
  CCSD-F12a correlation energy         -0.607579616426

  Triples (T) contribution             -0.026906205637
  Total correlation energy             -0.634485822063

  CCSD-F12a total energy             -152.347272594505
  CCSD[T]-F12a energy                -152.375200734234
  CCSD-T-F12a energy                 -152.373748828910
 !CCSD(T)-F12a total energy          -152.374178800142

 F12b corrections for ansatz F12/3C(FIX) added to CCSD(T)-F12a energy

  CCSD-F12b singlet pair energy        -0.411626501354
  CCSD-F12b triplet pair energy        -0.187579050094
  CCSD-F12b correlation energy         -0.599204737891

  Triples (T) contribution             -0.026906205637
  Total correlation energy             -0.626110943528

  CCSD-F12b total energy             -152.338897715970
  CCSD[T]-F12b energy                -152.366825855698
  CCSD-T-F12b energy                 -152.365373950375
 !CCSD(T)-F12b total energy          -152.365803921607

 Timing summary (sec):

 STEP                 CPU(USER)    SYS     CPU(TOT)    WALL
 Transformation          5.92      0.72      6.64     16.12
 CCSD iterations         9.89      1.03     10.92     10.95
 Triples                15.36      0.36     15.72     15.73
 MP2-F12                 2.34      0.51      2.85      4.99
 F12b energy             0.79      0.04      0.83      0.82

 Program statistics:

 Available memory in ccsd:                89998753
 Min. memory needed in ccsd:               3241832
 Max. memory used in ccsd:                 4157920
 Max. memory used in cckext:               3047643 ( 9 integral passes)



 **********************************************************************************************************************************
 DATASETS  * FILE   NREC   LENGTH (MB)   RECORD NAMES
              1      20      237.65       500      701      610      700      900      950      970     1000      129      960   
                                          VAR     GEOM    BASINP    GEOM    SYMINP    ZMAT    AOBASIS   BASIS     P2S    ABASIS    
                                         1100     1400     1410     1200     1210     1080     1600     1650     1700     1380   
                                           S        T        V       H0       H01     AOSYM     SMH    MOLCAS    OPER     JKOP   

              2      11       18.65       500      610      700     1000      520     2100     7360     7350      701     1001   
                                          VAR    BASINP    GEOM     BASIS   MCVARS     RHF    F12ABS    EF12     GEOM     BASIS   
                                         2101   
                                          RHF  

 PROGRAMS   *        TOTAL   CCSD(T)    HF-SCF       INT   RESTART
 CPU TIMES  *        51.63     34.35      3.02     13.60      0.45
 REAL TIME  *        79.51 SEC
 DISK USED  *       368.09 MB (local),        5.17 GB (total)
 SF USED    *       659.40 MB
 GA USED    *         3.05 MB       (max)       0.00 MB       (current)
 **********************************************************************************************************************************

 CCSD(T)-F12/cc-pVTZ-F12 energy=   -152.365803921607

     CCSD(T)-F12          HF-SCF
   -152.36580392   -151.73843244
 **********************************************************************************************************************************
 Molpro calculation terminated
