
Running Job 1 of 2 c5h11o-3.in
qchem c5h11o-3.in_19553.0 /tmp/qchem19553/ 4
/opt/qchem/bin/mpi/mpirun_qchem -machinefile /tmp/281061.1.normal3/hostfile -np 4 /opt/qchem/exe/qcprog.exe c5h11o-3.in_19553.0 /tmp/qchem19553/

Process 0 of 4 is on node68.cluster - thread support 0
Process 1 of 4 is on node68.cluster - thread support 0
Process 2 of 4 is on node68.cluster - thread support 0
Process 3 of 4 is on node68.cluster - thread support 0
initial socket setup ...start
initial socket setup ...done 
now start server 0 ... 
                  Welcome to Q-Chem
     A Quantum Leap Into The Future Of Chemistry

 Y. Shao, L. Fusti-Molnar, Y. Jung, J. Kussmann, C. Ochsenfeld, S. T. Brown, 
 A. T. B. Gilbert, L. V. Slipchenko, S. V. Levchenko, D. P. O'Neill, 
 R. A. DiStasio Jr., R. C. Lochan, T. Wang, G. J. O. Beran, N. A. Besley, 
 J. M. Herbert, C. Y. Lin, T. Van Voorhis, S. H. Chien, A. Sodt, R. P. Steele, 
 V. A. Rassolov, P. E. Maslen, P. P. Korambath, R. D. Adamson, B. Austin, 
 J. Baker, E. F. C. Byrd, H. Dachsel, R. J. Doerksen, A. Dreuw, B. D. Dunietz, 
 A. D. Dutoi, T. R. Furlani, S. R. Gwaltney, A. Heyden, S. Hirata, C.-P. Hsu, 
 G. Kedziora, R. Z. Khaliullin, P. Klunzinger, A. M. Lee, M. S. Lee, W. Liang, 
 I. Lotan, N. Nair, B. Peters, E. I. Proynov, P. A. Pieniazek, Y. M. Rhee, 
 J. Ritchie, E. Rosta, C. D. Sherrill, A. C. Simmonett, J. E. Subotnik, 
 H. L. Woodcock III, W. Zhang, A. T. Bell, A. K. Chakraborty, D. M. Chipman, 
 F. J. Keil, A. Warshel, W. J. Hehre, H. F. Schaefer III, J. Kong, 
 A. I. Krylov, P. M. W. Gill, M. Head-Gordon

 Additional authors for Version 3.1: 
 Z. Gan, Y. Zhao, N. E. SchultzD. Truhlar, E. Epifanovsky, M. Oana

 Additional authors for Version 3.2: 
 R. Baer, B. R. Brooks, D. Casanova, J.-D. Chai, C.-L. Cheng, C. Cramer, 
 D. Crittenden, A. Ghysels, G. Hawkins, E. G. Hohenstein, C. Kelley, 
 W. Kurlancheek, D. Liotard, E. Livshits, P. Manohar, A. Marenich, 
 D. Neuhauser, R. Olson, M. A. Rohrdanz, K. S. Thanthiriwatte, A. J. W. Thom, 
 V. Vanovschi, C. F. Williams, Q. Wu, Z.-Q. You

 Additional authors for Version 4.0: 
 A. Aspuru-Guzik, Y. Bernard, C. Chang, J. Deng, A. Dreuw, M. Diedenhofen, 
 R. G. Edgar, D. Ghosh, W. A. Goddard III, M. Goldey, L. D. Jacobson, 
 M. Gordon, B. Kaduk, I. Kaliman, K. Khistyaev, R. King, A. Klamt, 
 D. Kosenkov, T. Kus, D. Lambrecht, A. Landau, A. W. Lange, K. Lawler, F. Liu, 
 J. Liu, R. Olivares-Amaya, S. P. Mao, J. Parkhill, N. Russ, M. Schmidt, 
 N. Shenvi, D. Small, Y. C. Su, E. Sundstrom, L. Vogt, O. Vydrov, M. Watson, 
 M. Wormit, X. Xu, S. Yeganeh, I. Y. Zhang, D. Zuev

 Additional authors for Version 4.1: 
 X. Feng, M. W. D. Hanson-Heine, P. Horn, H. Ji, A. Laurent, R. Peverati, 
 N. Mardirossian, N. Sergueev, S. Sharada, P. Zimmerman


 Q-Chem, Version 4.1, Q-Chem, Inc., Pittsburgh, PA (2013).

 Intel X86 Linux Version 4.1.0.1 

 Q-chem begins on Wed Apr  9 10:52:12 2014  

Host: 
0

     Scratch files written to /tmp/qchem19553.0//
 Oct1213 14483_epif 4150   
 Parallel job on  4  processors
Processing $rem in /opt/qchem/config/preferences.
 MEM_TOTAL  2000 
Warning: disabling incdft.
 Q-Chem warning in module /home/scratch/svnadmin/14483_epif/qchem/forms1/BasisType.C, line 1125:

 Setting pure/cartesian flag to 2111 for general basis


Finally everything over in PARseQInput

--------------------------------------------------------------
User input:
--------------------------------------------------------------
$rem
XC_GRID 000075000434
JOBTYPE opt
EXCHANGE M08SO
BASIS gen
GUI=2
UNRESTRICTED TRUE
CORRELATION NONE
$end

$comment
c5h11o-2
$end

$molecule
read c5h11o-3MG3S.out
$end

$basis
H  0
S  3 1.00
3.386500000000E+01 2.549380000000E-02
5.094790000000E+00 1.903730000000E-01
1.158790000000E+00 8.521610000000E-01
S  1 1.00
3.258400000000E-01 1.000000000000E+00
S  1 1.00
1.027410000000E-01 1.000000000000E+00
S  1 1.00
3.600000000000E-02 1.000000000000E+00
P  1 1.00
1.500000000000E+00 1.000000000000E+00
P  1 1.00
3.750000000000E-01 1.000000000000E+00
****
C 0
S  6 1.00
4.563240000000E+03 1.966650000000E-03
6.820240000000E+02 1.523060000000E-02
1.549730000000E+02 7.612690000000E-02
4.445530000000E+01 2.608010000000E-01
1.302900000000E+01 6.164620000000E-01
1.827730000000E+00 2.210060000000E-01
S  3 1.00
2.096420000000E+01 1.146600000000E-01
4.803310000000E+00 9.199990000000E-01
1.459330000000E+00 -3.030680000000E-03
S  1 1.00
4.834560000000E-01 1.000000000000E+00
S  1 1.00
1.455850000000E-01 1.000000000000E+00
S  1 1.00
4.380000000000E-02 1.000000000000E+00
P  3 1.00
2.096420000000E+01 4.024870000000E-02
4.803310000000E+00 2.375940000000E-01
1.459330000000E+00 8.158540000000E-01
P  1 1.00
4.834560000000E-01 1.000000000000E+00
P  1 1.00
1.455850000000E-01 1.000000000000E+00
P  1 1.00
4.380000000000E-02 1.000000000000E+00
D  1 1.00
1.252000000000E+00 1.000000000000E+00
D  1 1.00
3.130000000000E-01 1.000000000000E+00
F  1 1.00
8.000000000000E-01 1.000000000000E+00
****
O  0
S  6 1.00
8.588500000000E+03 1.895150000000E-03
1.297230000000E+03 1.438590000000E-02
2.992960000000E+02 7.073200000000E-02
8.737710000000E+01 2.400010000000E-01
2.567890000000E+01 5.947970000000E-01
3.740040000000E+00 2.808020000000E-01
S  3 1.00
4.211750000000E+01 1.138890000000E-01
9.628370000000E+00 9.208110000000E-01
2.853320000000E+00 -3.274470000000E-03
S  1 1.00
9.056610000000E-01 1.000000000000E+00
S  1 1.00
2.556110000000E-01 1.000000000000E+00
S  1 1.00
8.450000000000E-02 1.000000000000E+00
P  3 1.00
4.211750000000E+01 3.651140000000E-02
9.628370000000E+00 2.371530000000E-01
2.853320000000E+00 8.197020000000E-01
P  1 1.00
9.056610000000E-01 1.000000000000E+00
P  1 1.00
2.556110000000E-01 1.000000000000E+00
P  1 1.00
8.450000000000E-02 1.000000000000E+00
D  1 1.00
2.584000000000E+00 1.000000000000E+00
D  1 1.00
6.460000000000E-01 1.000000000000E+00
F  1 1.00
1.400000000000E+00 1.000000000000E+00
****
$end

--------------------------------------------------------------
 ----------------------------------------------------
       Standard Nuclear Orientation (Angstroms)
    I     Atom         X            Y            Z
 ----------------------------------------------------
    1      C      -1.006298     0.036412    -0.332290
    2      H      -1.007588     0.092267    -1.432760
    3      C       0.292381     0.589152     0.163904
    4      H       0.314624     1.225868     1.045789
    5      C       1.583610     0.297786    -0.519747
    6      H       1.984159     1.184943    -1.026325
    7      H       1.428577    -0.472446    -1.292421
    8      O       2.617231    -0.094442     0.378395
    9      H       2.258861    -0.775016     0.967239
   10      C      -2.198994     0.837609     0.191043
   11      H      -2.120734     1.893002    -0.087267
   12      H      -3.141047     0.444953    -0.205471
   13      H      -2.244349     0.779121     1.285115
   14      C      -1.147211    -1.450786     0.044761
   15      H      -0.300797    -2.038713    -0.325390
   16      H      -2.064690    -1.877680    -0.376478
   17      H      -1.185796    -1.561795     1.134788
 ----------------------------------------------------
 Molecular Point Group                 C1    NOp =  1
 Largest Abelian Subgroup              C1    NOp =  1
 Nuclear Repulsion Energy =   243.6222714792 hartrees
 There are       25 alpha and       24 beta electrons
 Requested basis set is non-standard
 There are 138 shells and 314 basis functions

Total QAlloc Memory Limit   2000 MB
Mega-Array Size        61 MB
MEM_STATIC part        62 MB
 A cutoff of  1.0D-11 yielded   8949 shell pairs
 There are     45893 function pairs (     55034 Cartesian)
 Smallest overlap matrix eigenvalue = 1.39E-05

  Scale SEOQF with 1.000000e-01/1.000000e-01/1.000000e-01

 Standard Electronic Orientation quadrupole field applied
 Nucleus-field energy     =     0.0000000066 hartrees
 Guess MOs from core Hamiltonian diagonalization
 An unrestricted hybrid HF-DFT SCF calculation will be
 performed using Pulay DIIS extrapolation
 Exchange:     0.5679 Hartree-Fock + 1.0000 M08SO
 SCF converges when DIIS error is below 1.0E-08
 ---------------------------------------
  Cycle       Energy         DIIS Error
 ---------------------------------------
    1    -191.5526474364      9.15E-02
    2    -167.7992448755      4.96E-02
    3    -166.5957253805      6.58E-02
    4    -243.6752938556      3.64E-02
    5    -269.3667016277      1.51E-02
    6    -271.4797402515      7.79E-03
    7    -272.0359231874      4.06E-03
    8    -272.1983368584      5.88E-04
    9    -272.2052833764      2.46E-04
   10    -272.2069359249      7.69E-05
   11    -272.2073128214      3.73E-05
   12    -272.2073744250      8.85E-06
   13    -272.2073841331      3.44E-06
   14    -272.2073853349      1.27E-06
   15    -272.2073855039      5.00E-07
   16    -272.2073855220      1.85E-07
   17    -272.2073855253      6.71E-08
   18    -272.2073855258      1.59E-08
   19    -272.2073855259      4.37E-09 Convergence criterion met
 ---------------------------------------
 <S^2> = 0.7568
 SCF time:  CPU 1873.01 s  wall 1889.93 s
 SCF   energy in the final basis set = -272.2073855259
 Total energy in the final basis set = -272.2073855259
 Analysis of SCF Wavefunction
 
 --------------------------------------------------------------
                    Orbital Energies (a.u.)
 --------------------------------------------------------------
 
 Alpha MOs
 -- Occupied --
-19.563 -10.545 -10.511 -10.510 -10.493 -10.489  -1.135  -0.922
 -0.826  -0.784  -0.720  -0.651  -0.592  -0.550  -0.527  -0.521
 -0.493  -0.472  -0.460  -0.449  -0.419  -0.405  -0.396  -0.366
 -0.264
 -- Virtual --
 -0.026  -0.013  -0.011  -0.007   0.013   0.017   0.018   0.020
  0.022   0.050   0.052   0.064   0.069   0.075   0.082   0.090
  0.101   0.109   0.118   0.124   0.126   0.129   0.132   0.140
  0.146   0.149   0.155   0.160   0.163   0.171   0.192   0.201
  0.210   0.216   0.224   0.230   0.233   0.243   0.252   0.257
  0.267   0.292   0.299   0.312   0.317   0.320   0.326   0.350
  0.356   0.382   0.399   0.424   0.440   0.461   0.474   0.497
  0.510   0.518   0.521   0.528   0.535   0.552   0.560   0.568
  0.571   0.578   0.583   0.588   0.606   0.607   0.613   0.639
  0.649   0.663   0.669   0.683   0.693   0.705   0.710   0.726
  0.749   0.768   0.777   0.808   0.813   0.835   0.848   0.911
  0.922   0.941   0.949   0.978   0.985   1.012   1.029   1.038
  1.047   1.069   1.075   1.109   1.111   1.122   1.142   1.157
  1.158   1.176   1.191   1.203   1.218   1.228   1.252   1.276
  1.284   1.295   1.310   1.323   1.330   1.335   1.350   1.360
  1.368   1.394   1.406   1.414   1.424   1.438   1.453   1.474
  1.482   1.505   1.513   1.523   1.543   1.565   1.579   1.596
  1.602   1.629   1.635   1.660   1.693   1.722   1.744   1.814
  1.921   2.042   2.102   2.261   2.310   2.391   2.432   2.482
  2.500   2.509   2.546   2.567   2.583   2.645   2.679   2.693
  2.715   2.737   2.765   2.802   2.815   2.839   2.848   2.886
  2.918   2.921   2.934   2.943   2.994   3.016   3.021   3.042
  3.062   3.100   3.110   3.118   3.156   3.171   3.221   3.225
  3.250   3.264   3.272   3.301   3.316   3.333   3.342   3.363
  3.387   3.399   3.423   3.429   3.460   3.467   3.500   3.523
  3.560   3.563   3.573   3.579   3.635   3.642   3.668   3.703
  3.726   3.729   3.758   3.772   3.786   3.790   3.816   3.853
  3.871   3.892   3.916   3.945   3.985   3.991   4.007   4.021
  4.030   4.046   4.073   4.105   4.122   4.140   4.160   4.171
  4.176   4.196   4.202   4.246   4.260   4.269   4.279   4.298
  4.323   4.346   4.376   4.422   4.437   4.443   4.489   4.494
  4.535   4.544   4.586   4.601   4.643   4.674   4.723   4.840
  4.935   5.040   5.164   5.178   5.217   5.236   5.321   5.379
  5.423   5.453   5.477   5.525   5.545   5.561   5.616   5.636
  5.646   5.658   5.768   5.878   6.448   6.949   7.095   7.176
  7.178   7.468   7.588  24.013  24.121  24.178  24.242  24.313
 49.783
 
 Beta MOs
 -- Occupied --
-19.562 -10.546 -10.512 -10.494 -10.492 -10.488  -1.131  -0.916
 -0.819  -0.782  -0.713  -0.642  -0.589  -0.546  -0.522  -0.509
 -0.489  -0.471  -0.458  -0.444  -0.411  -0.403  -0.395  -0.363
 -- Virtual --
 -0.040  -0.026  -0.015  -0.012  -0.006   0.010   0.014   0.015
  0.019   0.020   0.048   0.050   0.060   0.066   0.073   0.080
  0.086   0.101   0.107   0.115   0.123   0.124   0.127   0.128
  0.138   0.144   0.146   0.153   0.157   0.160   0.169   0.193
  0.201   0.212   0.216   0.222   0.231   0.236   0.247   0.251
  0.257   0.275   0.296   0.300   0.313   0.317   0.321   0.329
  0.352   0.366   0.386   0.401   0.426   0.442   0.461   0.474
  0.502   0.514   0.519   0.530   0.537   0.547   0.560   0.562
  0.568   0.571   0.580   0.585   0.604   0.610   0.613   0.628
  0.650   0.652   0.671   0.685   0.689   0.698   0.705   0.714
  0.734   0.753   0.777   0.782   0.808   0.815   0.840   0.854
  0.914   0.925   0.944   0.954   0.979   0.989   1.016   1.031
  1.042   1.053   1.070   1.082   1.113   1.117   1.125   1.147
  1.160   1.164   1.179   1.195   1.209   1.224   1.228   1.255
  1.284   1.292   1.300   1.314   1.328   1.334   1.344   1.358
  1.362   1.380   1.405   1.414   1.419   1.430   1.450   1.460
  1.479   1.486   1.510   1.525   1.532   1.557   1.566   1.580
  1.600   1.609   1.637   1.645   1.677   1.703   1.743   1.754
  1.825   1.925   2.057   2.110   2.261   2.314   2.393   2.444
  2.492   2.510   2.521   2.563   2.583   2.601   2.665   2.697
  2.714   2.741   2.776   2.829   2.838   2.846   2.882   2.921
  2.930   2.945   2.955   2.982   3.012   3.019   3.027   3.043
  3.063   3.068   3.104   3.127   3.156   3.182   3.200   3.230
  3.249   3.273   3.277   3.293   3.328   3.333   3.341   3.377
  3.402   3.405   3.426   3.442   3.464   3.477   3.495   3.524
  3.530   3.575   3.579   3.594   3.603   3.658   3.681   3.695
  3.716   3.733   3.739   3.772   3.786   3.800   3.818   3.838
  3.869   3.876   3.897   3.937   3.947   3.987   4.005   4.015
  4.030   4.051   4.073   4.088   4.119   4.132   4.157   4.166
  4.179   4.192   4.204   4.205   4.255   4.283   4.289   4.302
  4.337   4.350   4.392   4.403   4.442   4.463   4.477   4.508
  4.523   4.554   4.557   4.620   4.637   4.662   4.695   4.812
  4.870   5.042   5.108   5.167   5.188   5.255   5.287   5.324
  5.376   5.462   5.488   5.520   5.551   5.561   5.612   5.619
  5.650   5.656   5.681   5.779   5.879   6.447   6.949   7.099
  7.177   7.180   7.468   7.589  24.025  24.126  24.178  24.247
 24.334  49.783
 --------------------------------------------------------------
 
          Ground-State Mulliken Net Atomic Charges

     Atom                 Charge (a.u.)    Spin (a.u.)
  --------------------------------------------------------
      1 C                    -0.212904      -0.080582
      2 H                     0.279251       0.031918
      3 C                     0.116939       1.051580
      4 H                     0.312613      -0.051336
      5 C                    -0.717477      -0.055526
      6 H                     0.180575       0.044848
      7 H                     0.237025       0.003713
      8 O                    -0.305544       0.017171
      9 H                     0.271917       0.001133
     10 C                    -0.683752       0.013482
     11 H                     0.187948       0.000356
     12 H                     0.203599       0.000571
     13 H                     0.208317       0.003436
     14 C                    -0.685507       0.000695
     15 H                     0.189070       0.001939
     16 H                     0.192457       0.014718
     17 H                     0.225474       0.001885
  --------------------------------------------------------
  Sum of atomic charges =     0.000000
  Sum of spin   charges =     1.000000

 -----------------------------------------------------------------
                    Cartesian Multipole Moments
 -----------------------------------------------------------------
    Charge (ESU x 10^10)
                 0.0000
    Dipole Moment (Debye)
         X      -2.0015      Y      -0.5704      Z      -0.2322
       Tot       2.0941
    Quadrupole Moments (Debye-Ang)
        XX     -47.9549     XY      -1.0379     YY     -39.1994
        XZ      -0.3711     YZ      -1.1277     ZZ     -38.6472
    Octapole Moments (Debye-Ang^2)
       XXX     -20.4142    XXY      -3.5092    XYY       6.8960
       YYY      -0.2705    XXZ      -3.1651    XYZ      -3.9787
       YYZ       0.8726    XZZ       5.8566    YZZ      -1.3629
       ZZZ       2.8247
    Hexadecapole Moments (Debye-Ang^3)
      XXXX    -857.4576   XXXY      -0.7731   XXYY    -159.6921
      XYYY      -4.4085   YYYY    -236.0200   XXXZ       2.0672
      XXYZ      -9.2697   XYYZ       3.8066   YYYZ      -1.4546
      XXZZ    -139.2424   XYZZ      -3.6348   YYZZ     -55.1982
      XZZZ       5.2603   YZZZ      -2.3790   ZZZZ    -106.5441
 -----------------------------------------------------------------
 Calculating analytic gradient of the SCF energy
 Gradient of Coulomb and Exchange Energy
            1           2           3           4           5           6
    1   3.9695751   0.1069526  -0.5636386  -0.2831158  -2.7272774  -1.8539673
    2  -0.5543349  -0.1333466  -2.7123065  -2.8375494  -0.8799829  -3.7037393
    3  -0.3304581   4.6860469   0.2485093  -3.6238157   1.0780275   2.4108719
            7           8           9          10          11          12
    1   0.0325212 -11.0934167   0.5753496   3.7432079   0.3744927   3.5554227
    2   2.8001930  -0.3445229   3.3860570  -1.3316675  -3.8908234   0.8946932
    3   3.3391782  -1.7444141  -3.2187150  -0.3545634   0.6600171   1.1131093
           13          14          15          16          17
    1   0.9390437   2.2226791  -2.5868222   3.2554239   0.3335693
    2  -0.3759860   3.5200998   2.8020789   2.1172747   1.2438628
    3  -3.7216948   0.9419128   1.0406082   1.2468508  -3.7714710
 Gradient of SCF Energy
            1           2           3           4           5           6
    1   0.0000456  -0.0003503  -0.0007011   0.0002235  -0.0007104   0.0000316
    2  -0.0003927  -0.0000817   0.0004126  -0.0015039   0.0008987  -0.0025215
    3   0.0002923   0.0021276   0.0010014  -0.0021028  -0.0011676   0.0018671
            7           8           9          10          11          12
    1   0.0003697   0.0028897  -0.0028088   0.0000517  -0.0000463   0.0013707
    2   0.0012309   0.0045928  -0.0033079   0.0000503  -0.0016455   0.0006254
    3   0.0015796  -0.0042272   0.0024064  -0.0003085   0.0004781   0.0004588
           13          14          15          16          17
    1  -0.0000473  -0.0002039  -0.0018035   0.0013863   0.0003027
    2   0.0001079   0.0002959   0.0009544   0.0002526   0.0000315
    3  -0.0018273  -0.0004740   0.0008805   0.0005707  -0.0015551
 Max gradient component =       4.593E-03
 RMS gradient           =       1.540E-03
 Gradient time:  CPU 135.07 s  wall 135.32 s
 Geometry Optimization Parameters
   NAtoms,    NIC,     NZ,  NCons,   NDum,   NFix, NCnnct, MaxDiis
       17     111      17       0       0       0       0       0


** GEOMETRY OPTIMIZATION IN DELOCALIZED INTERNAL COORDINATES **
   Searching for a Minimum

   Optimization Cycle:   1

                       Coordinates (Angstroms)
     ATOM              X           Y           Z
      1  C        -1.006298    0.036412   -0.332290
      2  H        -1.007588    0.092267   -1.432760
      3  C         0.292381    0.589152    0.163904
      4  H         0.314624    1.225868    1.045789
      5  C         1.583610    0.297786   -0.519747
      6  H         1.984159    1.184943   -1.026325
      7  H         1.428577   -0.472446   -1.292421
      8  O         2.617231   -0.094442    0.378395
      9  H         2.258861   -0.775016    0.967239
     10  C        -2.198994    0.837609    0.191043
     11  H        -2.120734    1.893002   -0.087267
     12  H        -3.141047    0.444953   -0.205471
     13  H        -2.244349    0.779121    1.285115
     14  C        -1.147211   -1.450786    0.044761
     15  H        -0.300797   -2.038713   -0.325390
     16  H        -2.064690   -1.877680   -0.376478
     17  H        -1.185796   -1.561795    1.134788
   Point Group: c1    Number of degrees of freedom:    45


   Energy is   -272.207385526


 Attempting to Generate Delocalized Internal Coordinates
 GETINT wrote B to file, NVib is           45
 calling HSSCONV
 HCONV 3*NATOMS:           51
 wrote HINT to file
  writing hessian 

 45 Hessian modes will be used to form the next step
  Hessian Eigenvalues:
     0.003794    0.005322    0.009695    0.010102    0.010526    0.012420
     0.040362    0.049609    0.055023    0.055966    0.056172    0.057272
     0.058499    0.060173    0.073582    0.119561    0.142024    0.159999
     0.160000    0.160000    0.160000    0.160000    0.160000    0.160000
     0.160000    0.167627    0.182672    0.220000    0.220511    0.284563
     0.295014    0.327906    0.334663    0.334699    0.334743    0.339803
     0.340641    0.340897    0.341164    0.342380    0.342494    0.343234
     0.350512    0.418068    0.536469

 Minimum Search - Taking Simple RFO Step
 Searching for Lamda that Minimizes Along All modes
 Value Taken    Lamda =  -0.00031769
 Step Taken.  Stepsize is  0.077136

                             Maximum     Tolerance    Cnvgd?
         Gradient           0.004842      0.000300      NO
         Displacement       0.033182      0.001200      NO
         Energy change     *********      0.000001      NO


 New Cartesian Coordinates Obtained by Inverse Iteration

 Displacement from previous Coordinates is:  0.156185
 ----------------------------------------------------
       Standard Nuclear Orientation (Angstroms)
    I     Atom         X            Y            Z
 ----------------------------------------------------
    1      C      -1.008606     0.045052    -0.340711
    2      H      -1.014469     0.103926    -1.444376
    3      C       0.291437     0.600783     0.152945
    4      H       0.313188     1.244490     1.034577
    5      C       1.584253     0.286231    -0.519336
    6      H       1.991149     1.167209    -1.041164
    7      H       1.424571    -0.494904    -1.284639
    8      O       2.605313    -0.105975     0.395919
    9      H       2.246126    -0.771885     0.993163
   10      C      -2.203509     0.837931     0.199907
   11      H      -2.139394     1.896300    -0.081092
   12      H      -3.149888     0.434892    -0.182333
   13      H      -2.231364     0.779701     1.297414
   14      C      -1.136232    -1.446907     0.034388
   15      H      -0.283379    -2.028024    -0.341771
   16      H      -2.054472    -1.878198    -0.386674
   17      H      -1.172785    -1.560388     1.126668
 ----------------------------------------------------
 Molecular Point Group                 C1    NOp =  1
 Largest Abelian Subgroup              C1    NOp =  1
 Nuclear Repulsion Energy =   243.4724245622 hartrees
 There are       25 alpha and       24 beta electrons
 Applying Cartesian multipole field
    Component          Value
    ---------          -----
     (2,0,0)        1.00000E-11
     (0,2,0)        2.00000E-11
     (0,0,2)       -3.00000E-11
 Nucleus-field energy     =     0.0000000066 hartrees
 Requested basis set is non-standard
 There are 138 shells and 314 basis functions
 A cutoff of  1.0D-11 yielded   8957 shell pairs
 There are     45921 function pairs (     55065 Cartesian)
 Smallest overlap matrix eigenvalue = 1.39E-05
 Guess MOs from SCF MO coefficient file
Reading MOs from coefficient file
Reading MOs from coefficient file
 An unrestricted hybrid HF-DFT SCF calculation will be
 performed using Pulay DIIS extrapolation
 Exchange:     0.5679 Hartree-Fock + 1.0000 M08SO
 SCF converges when DIIS error is below 1.0E-08
Geometry optimization detected.  Setting ReadMinima to 0
Setting SaveMinima to 0
 Inaccurate integrated density:
   Number of electrons =    49
   Numerical integral  =    48.985713977894
   Relative error      =    -0.0291551472 %
 ---------------------------------------
  Cycle       Energy         DIIS Error
 ---------------------------------------
    1    -272.2048262829      2.49E-04
    2    -272.2075173373      3.60E-05
    3    -272.2075391141      2.64E-05
    4    -272.2075484811      6.91E-06
    5    -272.2075493694      3.62E-06
    6    -272.2075495599      9.97E-07
    7    -272.2075495983      3.43E-07
    8    -272.2075496074      1.36E-07
    9    -272.2075496088      5.09E-08
   10    -272.2075496090      1.58E-08
   11    -272.2075496094      5.37E-09 Convergence criterion met
 ---------------------------------------
 <S^2> = 0.7568
 SCF time:  CPU 1108.79 s  wall 1118.10 s
 SCF   energy in the final basis set = -272.2075496094
 Total energy in the final basis set = -272.2075496094
 Analysis of SCF Wavefunction
 
 --------------------------------------------------------------
                    Orbital Energies (a.u.)
 --------------------------------------------------------------
 
 Alpha MOs
 -- Occupied --
-19.563 -10.547 -10.512 -10.511 -10.494 -10.490  -1.135  -0.921
 -0.826  -0.783  -0.719  -0.650  -0.592  -0.549  -0.526  -0.521
 -0.493  -0.471  -0.459  -0.448  -0.419  -0.405  -0.395  -0.366
 -0.264
 -- Virtual --
 -0.026  -0.013  -0.011  -0.007   0.013   0.016   0.018   0.020
  0.022   0.050   0.052   0.064   0.068   0.075   0.082   0.090
  0.101   0.109   0.118   0.124   0.126   0.129   0.132   0.141
  0.146   0.149   0.155   0.160   0.163   0.171   0.192   0.201
  0.210   0.215   0.224   0.229   0.231   0.244   0.251   0.256
  0.266   0.292   0.298   0.311   0.316   0.319   0.325   0.349
  0.355   0.382   0.399   0.424   0.440   0.460   0.473   0.496
  0.510   0.517   0.520   0.529   0.535   0.552   0.562   0.567
  0.570   0.577   0.583   0.588   0.605   0.607   0.613   0.637
  0.647   0.660   0.667   0.682   0.693   0.703   0.708   0.725
  0.749   0.770   0.779   0.807   0.810   0.832   0.846   0.910
  0.920   0.940   0.948   0.977   0.983   1.012   1.031   1.037
  1.046   1.066   1.075   1.106   1.110   1.121   1.140   1.156
  1.156   1.176   1.190   1.202   1.217   1.227   1.249   1.275
  1.282   1.291   1.309   1.322   1.329   1.334   1.350   1.359
  1.368   1.391   1.405   1.412   1.423   1.438   1.450   1.472
  1.480   1.502   1.512   1.521   1.544   1.563   1.577   1.594
  1.602   1.628   1.633   1.661   1.692   1.722   1.740   1.810
  1.922   2.039   2.100   2.260   2.310   2.391   2.432   2.482
  2.499   2.512   2.547   2.569   2.580   2.645   2.677   2.694
  2.714   2.736   2.764   2.802   2.813   2.837   2.846   2.886
  2.916   2.920   2.935   2.942   2.990   3.013   3.021   3.042
  3.060   3.097   3.109   3.115   3.152   3.171   3.216   3.221
  3.249   3.262   3.272   3.299   3.318   3.332   3.341   3.360
  3.384   3.397   3.424   3.428   3.462   3.469   3.500   3.522
  3.559   3.561   3.573   3.578   3.633   3.639   3.667   3.700
  3.724   3.726   3.757   3.771   3.782   3.788   3.813   3.851
  3.864   3.888   3.915   3.937   3.978   3.986   4.003   4.019
  4.025   4.041   4.068   4.097   4.118   4.137   4.161   4.168
  4.173   4.191   4.198   4.248   4.254   4.262   4.276   4.296
  4.318   4.339   4.374   4.416   4.432   4.437   4.481   4.490
  4.526   4.536   4.577   4.595   4.638   4.668   4.719   4.840
  4.930   5.035   5.163   5.175   5.211   5.230   5.319   5.369
  5.412   5.446   5.472   5.527   5.536   5.552   5.604   5.625
  5.634   5.645   5.761   5.881   6.439   6.949   7.119   7.173
  7.176   7.475   7.584  24.002  24.110  24.163  24.229  24.300
 49.786
 
 Beta MOs
 -- Occupied --
-19.562 -10.548 -10.513 -10.494 -10.493 -10.490  -1.131  -0.915
 -0.819  -0.781  -0.713  -0.641  -0.588  -0.545  -0.521  -0.510
 -0.489  -0.470  -0.458  -0.443  -0.411  -0.404  -0.395  -0.363
 -- Virtual --
 -0.040  -0.026  -0.015  -0.012  -0.006   0.010   0.014   0.015
  0.019   0.020   0.048   0.050   0.061   0.066   0.073   0.080
  0.086   0.101   0.106   0.115   0.122   0.124   0.127   0.128
  0.139   0.145   0.146   0.153   0.157   0.160   0.170   0.193
  0.200   0.212   0.216   0.221   0.230   0.234   0.246   0.251
  0.256   0.274   0.295   0.299   0.312   0.316   0.321   0.328
  0.351   0.365   0.386   0.400   0.426   0.442   0.461   0.474
  0.502   0.513   0.519   0.531   0.537   0.546   0.561   0.562
  0.568   0.570   0.580   0.584   0.604   0.609   0.612   0.628
  0.649   0.650   0.669   0.684   0.687   0.698   0.703   0.713
  0.733   0.754   0.780   0.783   0.807   0.811   0.837   0.852
  0.912   0.924   0.943   0.952   0.978   0.988   1.016   1.032
  1.041   1.052   1.068   1.083   1.110   1.115   1.125   1.146
  1.159   1.162   1.179   1.194   1.208   1.224   1.227   1.253
  1.283   1.290   1.297   1.314   1.325   1.333   1.342   1.356
  1.362   1.380   1.403   1.414   1.418   1.430   1.449   1.457
  1.477   1.484   1.507   1.524   1.530   1.557   1.564   1.579
  1.598   1.608   1.636   1.642   1.678   1.701   1.742   1.751
  1.821   1.926   2.054   2.107   2.260   2.313   2.393   2.444
  2.492   2.512   2.523   2.563   2.584   2.598   2.665   2.695
  2.713   2.739   2.776   2.827   2.836   2.845   2.881   2.920
  2.928   2.944   2.954   2.981   3.010   3.017   3.026   3.042
  3.062   3.066   3.102   3.125   3.153   3.179   3.199   3.226
  3.246   3.272   3.274   3.292   3.324   3.332   3.339   3.375
  3.401   3.404   3.425   3.441   3.467   3.478   3.499   3.523
  3.530   3.573   3.580   3.592   3.602   3.657   3.681   3.692
  3.710   3.732   3.736   3.770   3.784   3.797   3.812   3.835
  3.867   3.870   3.895   3.935   3.939   3.981   4.000   4.012
  4.027   4.044   4.071   4.083   4.112   4.127   4.158   4.164
  4.175   4.186   4.201   4.202   4.255   4.281   4.286   4.296
  4.332   4.345   4.388   4.398   4.436   4.457   4.472   4.502
  4.516   4.546   4.549   4.613   4.630   4.657   4.690   4.811
  4.869   5.037   5.104   5.165   5.186   5.248   5.280   5.322
  5.366   5.456   5.477   5.529   5.540   5.553   5.601   5.607
  5.638   5.643   5.670   5.772   5.882   6.439   6.949   7.122
  7.174   7.177   7.474   7.585  24.014  24.114  24.164  24.233
 24.321  49.786
 --------------------------------------------------------------
 
          Ground-State Mulliken Net Atomic Charges

     Atom                 Charge (a.u.)    Spin (a.u.)
  --------------------------------------------------------
      1 C                    -0.200997      -0.081543
      2 H                     0.277628       0.032949
      3 C                     0.101190       1.050069
      4 H                     0.307082      -0.051941
      5 C                    -0.709268      -0.054306
      6 H                     0.181813       0.044505
      7 H                     0.235680       0.003905
      8 O                    -0.306254       0.017150
      9 H                     0.271525       0.000847
     10 C                    -0.681247       0.013319
     11 H                     0.188094       0.000409
     12 H                     0.202062       0.000321
     13 H                     0.207455       0.003459
     14 C                    -0.678327       0.002393
     15 H                     0.186663       0.001789
     16 H                     0.193222       0.014778
     17 H                     0.223681       0.001897
  --------------------------------------------------------
  Sum of atomic charges =     0.000000
  Sum of spin   charges =     1.000000

 -----------------------------------------------------------------
                    Cartesian Multipole Moments
 -----------------------------------------------------------------
    Charge (ESU x 10^10)
                 0.0000
    Dipole Moment (Debye)
         X      -1.9906      Y      -0.5592      Z      -0.2295
       Tot       2.0803
    Quadrupole Moments (Debye-Ang)
        XX     -47.9381     XY      -0.9846     YY     -39.2760
        XZ      -0.4134     YZ      -1.1379     ZZ     -38.5975
    Octapole Moments (Debye-Ang^2)
       XXX     -20.0054    XXY      -3.2867    XYY       6.8452
       YYY      -0.2580    XXZ      -3.2843    XYZ      -3.9835
       YYZ       0.9295    XZZ       6.0819    YZZ      -1.4399
       ZZZ       2.9969
    Hexadecapole Moments (Debye-Ang^3)
      XXXX    -854.5474   XXXY       1.5445   XXYY    -159.6374
      XYYY      -2.9901   YYYY    -236.5147   XXXZ       0.8708
      XXYZ      -9.4061   XYYZ       3.6302   YYYZ      -1.8795
      XXZZ    -139.0185   XYZZ      -3.2317   YYZZ     -55.2948
      XZZZ       4.9814   YZZZ      -3.0840   ZZZZ    -107.3567
 -----------------------------------------------------------------
 Calculating analytic gradient of the SCF energy
 Gradient of Coulomb and Exchange Energy
            1           2           3           4           5           6
    1   4.0444042   0.1092387  -0.6612568  -0.2769273  -2.7400807  -1.8440525
    2  -0.6426887  -0.1376079  -2.7567202  -2.8499137  -0.9003332  -3.6766889
    3  -0.2737102   4.6821618   0.3956427  -3.6190291   1.1323903   2.4749812
            7           8           9          10          11          12
    1   0.0518893 -11.0066600   0.5599926   3.7717818   0.4133667   3.5604583
    2   2.8418597  -0.2297729   3.3335105  -1.3437787  -3.8876733   0.9339088
    3   3.2979316  -1.8400190  -3.3075358  -0.3951147   0.6650487   1.0549687
           13          14          15          16          17
    1   0.8789842   2.1563597  -2.6069964   3.2556711   0.3338272
    2  -0.3714279   3.5453960   2.7741033   2.1163148   1.2515124
    3  -3.7358534   0.9272999   1.0643118   1.2505763  -3.7740509
 Gradient of SCF Energy
            1           2           3           4           5           6
    1   0.0001802   0.0001174   0.0000613   0.0000401  -0.0004427  -0.0002154
    2  -0.0002698  -0.0001382  -0.0002492  -0.0000940   0.0007599   0.0001002
    3  -0.0000715   0.0000253  -0.0002575   0.0001814  -0.0009535  -0.0001230
            7           8           9          10          11          12
    1  -0.0000836   0.0004719   0.0000977  -0.0000673  -0.0000086   0.0000149
    2  -0.0000298  -0.0002866  -0.0002610   0.0002061   0.0000011   0.0000233
    3   0.0000985   0.0006138   0.0003302   0.0000776   0.0000533  -0.0000349
           13          14          15          16          17
    1  -0.0001771  -0.0001002   0.0000053   0.0000477   0.0000585
    2   0.0000588   0.0003513  -0.0000759   0.0000058  -0.0001019
    3  -0.0000124   0.0000247   0.0000194   0.0000252   0.0000035
 Max gradient component =       9.535E-04
 RMS gradient           =       2.508E-04
 Gradient time:  CPU 138.91 s  wall 139.08 s
 Geometry Optimization Parameters
   NAtoms,    NIC,     NZ,  NCons,   NDum,   NFix, NCnnct, MaxDiis
       17     111      17       0       0       0       0       0

 Cartesian Hessian Update
 Hessian Updated using BFGS Update


** GEOMETRY OPTIMIZATION IN DELOCALIZED INTERNAL COORDINATES **
   Searching for a Minimum

   Optimization Cycle:   2

                       Coordinates (Angstroms)
     ATOM              X           Y           Z
      1  C        -1.008606    0.045052   -0.340711
      2  H        -1.014469    0.103926   -1.444376
      3  C         0.291437    0.600783    0.152945
      4  H         0.313188    1.244490    1.034577
      5  C         1.584253    0.286231   -0.519336
      6  H         1.991149    1.167209   -1.041164
      7  H         1.424571   -0.494904   -1.284639
      8  O         2.605313   -0.105975    0.395919
      9  H         2.246126   -0.771885    0.993163
     10  C        -2.203509    0.837931    0.199907
     11  H        -2.139394    1.896300   -0.081092
     12  H        -3.149888    0.434892   -0.182333
     13  H        -2.231364    0.779701    1.297414
     14  C        -1.136232   -1.446907    0.034388
     15  H        -0.283379   -2.028024   -0.341771
     16  H        -2.054472   -1.878198   -0.386674
     17  H        -1.172785   -1.560388    1.126668
   Point Group: c1    Number of degrees of freedom:    45


   Energy is   -272.207549609

 GETINT wrote B to file, NVib is           45
 Hessian Updated using BFGS Update

 40 Hessian modes will be used to form the next step
  Hessian Eigenvalues:
     0.003781    0.005219    0.008639    0.010089    0.010543    0.012421
     0.040028    0.049707    0.055027    0.055904    0.056138    0.057276
     0.058458    0.060545    0.073743    0.121367    0.142694    0.158584
     0.160000    0.167044    0.167621    0.182706    0.219638    0.222673
     0.282798    0.298604    0.326491    0.332083    0.334699    0.335327
     0.340259    0.340689    0.340868    0.341231    0.342417    0.343039
     0.343408    0.352015    0.441281    0.531476

 Minimum Search - Taking Simple RFO Step
 Searching for Lamda that Minimizes Along All modes
 Value Taken    Lamda =  -0.00002547
 Step Taken.  Stepsize is  0.048557

                             Maximum     Tolerance    Cnvgd?
         Gradient           0.000731      0.000300      NO
         Displacement       0.018840      0.001200      NO
         Energy change     -0.000164      0.000001      NO


 New Cartesian Coordinates Obtained by Inverse Iteration

 Displacement from previous Coordinates is:  0.096119
 ----------------------------------------------------
       Standard Nuclear Orientation (Angstroms)
    I     Atom         X            Y            Z
 ----------------------------------------------------
    1      C      -1.010194     0.049767    -0.344061
    2      H      -1.021556     0.111976    -1.447813
    3      C       0.290468     0.607481     0.146679
    4      H       0.312283     1.258236     1.023310
    5      C       1.584293     0.278891    -0.517746
    6      H       1.999229     1.152705    -1.045775
    7      H       1.423978    -0.508182    -1.277243
    8      O       2.599506    -0.109021     0.403670
    9      H       2.233647    -0.766519     1.005011
   10      C      -2.204639     0.836337     0.205513
   11      H      -2.148687     1.895002    -0.076983
   12      H      -3.152441     0.427510    -0.167527
   13      H      -2.220950     0.778346     1.303493
   14      C      -1.131379    -1.444165     0.027487
   15      H      -0.276162    -2.020568    -0.351132
   16      H      -2.048641    -1.877992    -0.393770
   17      H      -1.166816    -1.559569     1.119772
 ----------------------------------------------------
 Molecular Point Group                 C1    NOp =  1
 Largest Abelian Subgroup              C1    NOp =  1
 Nuclear Repulsion Energy =   243.5599937716 hartrees
 There are       25 alpha and       24 beta electrons
 Applying Cartesian multipole field
    Component          Value
    ---------          -----
     (2,0,0)        1.00000E-11
     (0,2,0)        2.00000E-11
     (0,0,2)       -3.00000E-11
 Nucleus-field energy     =     0.0000000065 hartrees
 Requested basis set is non-standard
 There are 138 shells and 314 basis functions
 A cutoff of  1.0D-11 yielded   8960 shell pairs
 There are     45926 function pairs (     55071 Cartesian)
 Smallest overlap matrix eigenvalue = 1.38E-05
 Guess MOs from SCF MO coefficient file
Reading MOs from coefficient file
Reading MOs from coefficient file
 An unrestricted hybrid HF-DFT SCF calculation will be
 performed using Pulay DIIS extrapolation
 Exchange:     0.5679 Hartree-Fock + 1.0000 M08SO
 SCF converges when DIIS error is below 1.0E-08
Geometry optimization detected.  Setting ReadMinima to 0
Setting SaveMinima to 0
 ---------------------------------------
  Cycle       Energy         DIIS Error
 ---------------------------------------
    1    -272.2066233237      1.33E-04
    2    -272.2075561256      1.88E-05
    3    -272.2075639460      1.43E-05
    4    -272.2075664519      4.64E-06
    5    -272.2075668997      1.84E-06
    6    -272.2075669800      5.13E-07
    7    -272.2075669992      2.09E-07
    8    -272.2075670034      6.96E-08
    9    -272.2075670039      2.29E-08
   10    -272.2075670038      8.90E-09 Convergence criterion met
 ---------------------------------------
 <S^2> = 0.7568
 SCF time:  CPU 929.39 s  wall 936.39 s
 SCF   energy in the final basis set = -272.2075670038
 Total energy in the final basis set = -272.2075670038
 Analysis of SCF Wavefunction
 
 --------------------------------------------------------------
                    Orbital Energies (a.u.)
 --------------------------------------------------------------
 
 Alpha MOs
 -- Occupied --
-19.563 -10.546 -10.512 -10.511 -10.495 -10.490  -1.135  -0.921
 -0.826  -0.783  -0.719  -0.650  -0.592  -0.549  -0.526  -0.521
 -0.493  -0.472  -0.459  -0.448  -0.419  -0.405  -0.395  -0.366
 -0.264
 -- Virtual --
 -0.026  -0.013  -0.011  -0.007   0.013   0.016   0.018   0.020
  0.022   0.051   0.052   0.065   0.068   0.075   0.082   0.090
  0.101   0.109   0.118   0.124   0.126   0.129   0.132   0.141
  0.146   0.149   0.155   0.160   0.163   0.172   0.192   0.201
  0.210   0.215   0.224   0.229   0.231   0.244   0.251   0.256
  0.266   0.292   0.298   0.311   0.316   0.320   0.325   0.349
  0.354   0.382   0.399   0.424   0.439   0.460   0.473   0.495
  0.509   0.518   0.520   0.530   0.535   0.552   0.562   0.567
  0.570   0.577   0.583   0.588   0.605   0.607   0.614   0.638
  0.647   0.659   0.666   0.682   0.693   0.703   0.708   0.725
  0.749   0.770   0.780   0.805   0.810   0.830   0.847   0.909
  0.920   0.940   0.948   0.976   0.983   1.012   1.032   1.037
  1.047   1.066   1.075   1.104   1.110   1.122   1.140   1.155
  1.156   1.175   1.191   1.203   1.217   1.227   1.249   1.275
  1.281   1.290   1.309   1.321   1.330   1.334   1.351   1.359
  1.368   1.391   1.405   1.412   1.424   1.438   1.450   1.472
  1.479   1.502   1.511   1.521   1.545   1.563   1.577   1.594
  1.602   1.628   1.633   1.661   1.691   1.722   1.740   1.810
  1.922   2.039   2.101   2.260   2.311   2.391   2.433   2.484
  2.498   2.512   2.546   2.569   2.579   2.646   2.676   2.693
  2.715   2.736   2.764   2.802   2.813   2.836   2.846   2.886
  2.916   2.920   2.935   2.942   2.990   3.012   3.022   3.043
  3.060   3.095   3.110   3.115   3.151   3.172   3.216   3.221
  3.250   3.262   3.272   3.298   3.319   3.331   3.341   3.359
  3.383   3.398   3.425   3.428   3.463   3.471   3.501   3.522
  3.558   3.561   3.574   3.577   3.632   3.638   3.667   3.700
  3.724   3.727   3.757   3.771   3.781   3.787   3.813   3.852
  3.862   3.889   3.917   3.936   3.978   3.987   4.004   4.019
  4.023   4.042   4.068   4.096   4.117   4.136   4.162   4.168
  4.174   4.190   4.199   4.250   4.254   4.260   4.275   4.296
  4.318   4.337   4.375   4.415   4.432   4.436   4.480   4.491
  4.525   4.536   4.576   4.594   4.639   4.668   4.719   4.840
  4.930   5.035   5.163   5.176   5.211   5.230   5.320   5.368
  5.412   5.446   5.473   5.528   5.536   5.552   5.602   5.624
  5.633   5.643   5.763   5.883   6.443   6.949   7.123   7.174
  7.176   7.475   7.585  24.002  24.110  24.163  24.228  24.300
 49.787
 
 Beta MOs
 -- Occupied --
-19.562 -10.548 -10.513 -10.494 -10.493 -10.490  -1.132  -0.915
 -0.819  -0.781  -0.713  -0.641  -0.589  -0.545  -0.521  -0.510
 -0.489  -0.470  -0.458  -0.443  -0.411  -0.404  -0.395  -0.363
 -- Virtual --
 -0.040  -0.026  -0.015  -0.012  -0.006   0.010   0.014   0.015
  0.019   0.020   0.048   0.050   0.061   0.066   0.073   0.080
  0.085   0.101   0.106   0.115   0.122   0.124   0.127   0.128
  0.139   0.145   0.146   0.153   0.157   0.160   0.170   0.192
  0.200   0.212   0.216   0.221   0.230   0.233   0.247   0.251
  0.256   0.274   0.295   0.299   0.312   0.316   0.321   0.328
  0.352   0.364   0.386   0.400   0.426   0.441   0.461   0.473
  0.501   0.513   0.519   0.532   0.537   0.546   0.562   0.562
  0.568   0.571   0.580   0.584   0.604   0.609   0.612   0.628
  0.648   0.650   0.668   0.683   0.687   0.699   0.703   0.714
  0.733   0.754   0.781   0.784   0.807   0.810   0.835   0.852
  0.912   0.923   0.944   0.952   0.978   0.987   1.016   1.034
  1.041   1.052   1.068   1.083   1.109   1.114   1.126   1.146
  1.158   1.162   1.179   1.194   1.209   1.224   1.227   1.252
  1.283   1.289   1.296   1.314   1.324   1.334   1.342   1.356
  1.364   1.380   1.403   1.414   1.419   1.430   1.450   1.457
  1.477   1.484   1.507   1.523   1.530   1.557   1.565   1.579
  1.598   1.608   1.636   1.642   1.679   1.701   1.743   1.750
  1.820   1.926   2.054   2.108   2.260   2.314   2.393   2.445
  2.493   2.512   2.524   2.564   2.584   2.597   2.666   2.695
  2.713   2.739   2.777   2.827   2.836   2.845   2.881   2.920
  2.928   2.944   2.954   2.981   3.010   3.016   3.026   3.042
  3.061   3.065   3.102   3.126   3.153   3.179   3.199   3.225
  3.246   3.272   3.274   3.291   3.323   3.333   3.339   3.374
  3.400   3.403   3.425   3.441   3.470   3.479   3.501   3.522
  3.531   3.573   3.581   3.591   3.603   3.657   3.680   3.691
  3.709   3.732   3.737   3.770   3.785   3.796   3.809   3.835
  3.867   3.870   3.896   3.936   3.939   3.981   4.000   4.013
  4.027   4.043   4.072   4.083   4.111   4.127   4.157   4.165
  4.175   4.185   4.202   4.203   4.256   4.281   4.287   4.295
  4.331   4.343   4.389   4.399   4.436   4.456   4.471   4.500
  4.518   4.545   4.550   4.613   4.628   4.657   4.690   4.811
  4.869   5.036   5.105   5.165   5.186   5.248   5.280   5.322
  5.366   5.457   5.477   5.529   5.540   5.553   5.600   5.606
  5.638   5.641   5.668   5.774   5.884   6.443   6.950   7.126
  7.176   7.177   7.474   7.586  24.014  24.114  24.163  24.233
 24.320  49.787
 --------------------------------------------------------------
 
          Ground-State Mulliken Net Atomic Charges

     Atom                 Charge (a.u.)    Spin (a.u.)
  --------------------------------------------------------
      1 C                    -0.197435      -0.082142
      2 H                     0.276984       0.033874
      3 C                     0.096343       1.049596
      4 H                     0.305977      -0.052091
      5 C                    -0.708882      -0.053900
      6 H                     0.182442       0.044449
      7 H                     0.235067       0.003838
      8 O                    -0.304945       0.016951
      9 H                     0.271219       0.000812
     10 C                    -0.681519       0.013223
     11 H                     0.188628       0.000465
     12 H                     0.201531       0.000154
     13 H                     0.207437       0.003523
     14 C                    -0.675822       0.002885
     15 H                     0.186035       0.001705
     16 H                     0.193946       0.014650
     17 H                     0.222995       0.002009
  --------------------------------------------------------
  Sum of atomic charges =     0.000000
  Sum of spin   charges =     1.000000

 -----------------------------------------------------------------
                    Cartesian Multipole Moments
 -----------------------------------------------------------------
    Charge (ESU x 10^10)
                 0.0000
    Dipole Moment (Debye)
         X      -1.9896      Y      -0.5536      Z      -0.2277
       Tot       2.0777
    Quadrupole Moments (Debye-Ang)
        XX     -47.9184     XY      -0.9449     YY     -39.3093
        XZ      -0.4352     YZ      -1.1268     ZZ     -38.5868
    Octapole Moments (Debye-Ang^2)
       XXX     -19.8037    XXY      -3.1481    XYY       6.7654
       YYY      -0.2702    XXZ      -3.4284    XYZ      -3.9375
       YYZ       0.9540    XZZ       6.1559    YZZ      -1.4859
       ZZZ       3.0649
    Hexadecapole Moments (Debye-Ang^3)
      XXXX    -852.5070   XXXY       2.6931   XXYY    -159.5385
      XYYY      -2.4055   YYYY    -236.3170   XXXZ       0.1160
      XXYZ      -9.4196   XYYZ       3.5400   YYYZ      -2.1286
      XXZZ    -138.8814   XYZZ      -3.0646   YYZZ     -55.2676
      XZZZ       4.8813   YZZZ      -3.5379   ZZZZ    -107.5446
 -----------------------------------------------------------------
 Calculating analytic gradient of the SCF energy
 Gradient of Coulomb and Exchange Energy
            1           2           3           4           5           6
    1   4.0519152   0.1340679  -0.7088915  -0.2786819  -2.6792653  -1.8856523
    2  -0.6712088  -0.1521389  -2.7953447  -2.8794468  -0.8730792  -3.6449561
    3  -0.2921070   4.6812518   0.4766360  -3.6005174   1.1357788   2.4884326
            7           8           9          10          11          12
    1   0.0507987 -11.0222180   0.5995316   3.7900939   0.4361989   3.5654442
    2   2.8709507  -0.2073765   3.2982561  -1.3342997  -3.8852545   0.9557519
    3   3.2753153  -1.8694564  -3.3358738  -0.3904937   0.6690620   1.0193768
           13          14          15          16          17
    1   0.8369019   2.1412010  -2.6163204   3.2524434   0.3324327
    2  -0.3686779   3.5409942   2.7597426   2.1256203   1.2604674
    3  -3.7432567   0.9274677   1.0740411   1.2566177  -3.7722747
 Gradient of SCF Energy
            1           2           3           4           5           6
    1   0.0000170   0.0000714   0.0000692  -0.0000027  -0.0002444   0.0001009
    2   0.0000238  -0.0001161   0.0000300  -0.0000844   0.0000127   0.0001280
    3  -0.0000379  -0.0001273  -0.0001733   0.0003289  -0.0001169  -0.0000375
            7           8           9          10          11          12
    1   0.0000080  -0.0000032   0.0001279   0.0000053   0.0000272  -0.0001219
    2  -0.0001524  -0.0002464   0.0002990   0.0000661   0.0001199  -0.0000606
    3  -0.0000445   0.0003629  -0.0002845  -0.0000218  -0.0000269  -0.0000663
           13          14          15          16          17
    1  -0.0000316  -0.0000876   0.0001729  -0.0001223   0.0000138
    2  -0.0000184   0.0001492  -0.0000749  -0.0000372  -0.0000383
    3   0.0001188   0.0001343  -0.0000811  -0.0000352   0.0001084
 Max gradient component =       3.629E-04
 RMS gradient           =       1.309E-04
 Gradient time:  CPU 132.35 s  wall 132.67 s
 Geometry Optimization Parameters
   NAtoms,    NIC,     NZ,  NCons,   NDum,   NFix, NCnnct, MaxDiis
       17     111      17       0       0       0       0       0

 Cartesian Hessian Update
 Hessian Updated using BFGS Update


** GEOMETRY OPTIMIZATION IN DELOCALIZED INTERNAL COORDINATES **
   Searching for a Minimum

   Optimization Cycle:   3

                       Coordinates (Angstroms)
     ATOM              X           Y           Z
      1  C        -1.010194    0.049767   -0.344061
      2  H        -1.021556    0.111976   -1.447813
      3  C         0.290468    0.607481    0.146679
      4  H         0.312283    1.258236    1.023310
      5  C         1.584293    0.278891   -0.517746
      6  H         1.999229    1.152705   -1.045775
      7  H         1.423978   -0.508182   -1.277243
      8  O         2.599506   -0.109021    0.403670
      9  H         2.233647   -0.766519    1.005011
     10  C        -2.204639    0.836337    0.205513
     11  H        -2.148687    1.895002   -0.076983
     12  H        -3.152441    0.427510   -0.167527
     13  H        -2.220950    0.778346    1.303493
     14  C        -1.131379   -1.444165    0.027487
     15  H        -0.276162   -2.020568   -0.351132
     16  H        -2.048641   -1.877992   -0.393770
     17  H        -1.166816   -1.559569    1.119772
   Point Group: c1    Number of degrees of freedom:    45


   Energy is   -272.207567004

 GETINT wrote B to file, NVib is           45
 Hessian Updated using BFGS Update

 41 Hessian modes will be used to form the next step
  Hessian Eigenvalues:
     0.003090    0.004177    0.005964    0.010316    0.010886    0.012426
     0.040424    0.049692    0.055022    0.055924    0.056129    0.057270
     0.058603    0.061865    0.074377    0.123565    0.142928    0.158550
     0.160000    0.160395    0.167537    0.178598    0.182789    0.220168
     0.224381    0.284400    0.297816    0.328229    0.334668    0.335219
     0.335853    0.340347    0.340753    0.341202    0.341546    0.342492
     0.343055    0.347938    0.359926    0.450085    0.568475

 Minimum Search - Taking Simple RFO Step
 Searching for Lamda that Minimizes Along All modes
 Value Taken    Lamda =  -0.00001849
 Step Taken.  Stepsize is  0.069324

                             Maximum     Tolerance    Cnvgd?
         Gradient           0.000334      0.000300      NO
         Displacement       0.024804      0.001200      NO
         Energy change     -0.000017      0.000001      NO


 New Cartesian Coordinates Obtained by Inverse Iteration

 Displacement from previous Coordinates is:  0.125620
 ----------------------------------------------------
       Standard Nuclear Orientation (Angstroms)
    I     Atom         X            Y            Z
 ----------------------------------------------------
    1      C      -1.011838     0.055103    -0.347478
    2      H      -1.030477     0.122284    -1.450850
    3      C       0.289449     0.615672     0.138615
    4      H       0.311079     1.280959     1.003949
    5      C       1.584297     0.270218    -0.515491
    6      H       2.007362     1.134712    -1.052208
    7      H       1.421911    -0.523890    -1.267110
    8      O       2.591984    -0.114067     0.414334
    9      H       2.218935    -0.762006     1.021756
   10      C      -2.205432     0.834032     0.213325
   11      H      -2.159227     1.892869    -0.070018
   12      H      -3.154432     0.419064    -0.149295
   13      H      -2.208973     0.776130     1.311366
   14      C      -1.125064    -1.441181     0.018350
   15      H      -0.267424    -2.011916    -0.362667
   16      H      -2.040409    -1.877840    -0.403919
   17      H      -1.159800    -1.559908     1.110225
 ----------------------------------------------------
 Molecular Point Group                 C1    NOp =  1
 Largest Abelian Subgroup              C1    NOp =  1
 Nuclear Repulsion Energy =   243.6731085133 hartrees
 There are       25 alpha and       24 beta electrons
 Applying Cartesian multipole field
    Component          Value
    ---------          -----
     (2,0,0)        1.00000E-11
     (0,2,0)        2.00000E-11
     (0,0,2)       -3.00000E-11
 Nucleus-field energy     =     0.0000000065 hartrees
 Requested basis set is non-standard
 There are 138 shells and 314 basis functions
 A cutoff of  1.0D-11 yielded   8962 shell pairs
 There are     45936 function pairs (     55085 Cartesian)
 Smallest overlap matrix eigenvalue = 1.36E-05
 Guess MOs from SCF MO coefficient file
Reading MOs from coefficient file
Reading MOs from coefficient file
 An unrestricted hybrid HF-DFT SCF calculation will be
 performed using Pulay DIIS extrapolation
 Exchange:     0.5679 Hartree-Fock + 1.0000 M08SO
 SCF converges when DIIS error is below 1.0E-08
Geometry optimization detected.  Setting ReadMinima to 0
Setting SaveMinima to 0
 ---------------------------------------
  Cycle       Energy         DIIS Error
 ---------------------------------------
    1    -272.2058856507      1.68E-04
    2    -272.2075603981      2.28E-05
    3    -272.2075752813      1.56E-05
    4    -272.2075788705      6.00E-06
    5    -272.2075798263      2.44E-06
    6    -272.2075799921      7.37E-07
    7    -272.2075800393      2.88E-07
    8    -272.2075800473      8.82E-08
    9    -272.2075800478      2.83E-08
   10    -272.2075800476      1.07E-08
   11    -272.2075800484      3.24E-09 Convergence criterion met
 ---------------------------------------
 <S^2> = 0.7568
 SCF time:  CPU 1062.60 s  wall 1071.56 s
 SCF   energy in the final basis set = -272.2075800484
 Total energy in the final basis set = -272.2075800484
 Analysis of SCF Wavefunction
 
 --------------------------------------------------------------
                    Orbital Energies (a.u.)
 --------------------------------------------------------------
 
 Alpha MOs
 -- Occupied --
-19.563 -10.546 -10.512 -10.511 -10.495 -10.490  -1.136  -0.921
 -0.825  -0.783  -0.719  -0.650  -0.592  -0.549  -0.526  -0.521
 -0.493  -0.472  -0.459  -0.448  -0.419  -0.405  -0.395  -0.366
 -0.264
 -- Virtual --
 -0.026  -0.013  -0.011  -0.007   0.013   0.016   0.018   0.020
  0.022   0.051   0.052   0.065   0.068   0.075   0.082   0.090
  0.101   0.109   0.118   0.124   0.125   0.129   0.132   0.141
  0.147   0.150   0.155   0.161   0.163   0.172   0.191   0.201
  0.210   0.216   0.224   0.228   0.231   0.245   0.251   0.256
  0.266   0.292   0.298   0.311   0.315   0.320   0.324   0.350
  0.354   0.381   0.398   0.423   0.439   0.460   0.472   0.495
  0.509   0.518   0.520   0.531   0.536   0.552   0.562   0.567
  0.570   0.577   0.583   0.588   0.605   0.608   0.615   0.638
  0.647   0.659   0.665   0.682   0.694   0.702   0.708   0.726
  0.750   0.771   0.782   0.802   0.810   0.827   0.847   0.909
  0.920   0.941   0.949   0.976   0.982   1.012   1.033   1.037
  1.048   1.066   1.075   1.103   1.109   1.123   1.140   1.155
  1.156   1.175   1.191   1.204   1.217   1.228   1.249   1.276
  1.279   1.290   1.310   1.321   1.331   1.335   1.352   1.360
  1.369   1.391   1.406   1.412   1.424   1.438   1.449   1.472
  1.479   1.502   1.511   1.521   1.546   1.563   1.577   1.594
  1.603   1.628   1.633   1.663   1.690   1.723   1.741   1.809
  1.922   2.039   2.102   2.260   2.312   2.391   2.433   2.486
  2.497   2.512   2.546   2.570   2.578   2.647   2.675   2.693
  2.715   2.737   2.764   2.802   2.812   2.836   2.846   2.887
  2.916   2.920   2.936   2.942   2.990   3.011   3.023   3.044
  3.059   3.092   3.111   3.116   3.151   3.173   3.214   3.221
  3.250   3.261   3.272   3.295   3.321   3.331   3.341   3.358
  3.381   3.398   3.426   3.429   3.464   3.474   3.501   3.523
  3.556   3.562   3.575   3.578   3.630   3.637   3.667   3.701
  3.725   3.727   3.757   3.772   3.781   3.787   3.813   3.853
  3.862   3.891   3.918   3.936   3.978   3.988   4.005   4.019
  4.022   4.044   4.068   4.094   4.117   4.136   4.163   4.168
  4.176   4.190   4.200   4.252   4.254   4.260   4.277   4.296
  4.319   4.336   4.376   4.415   4.431   4.435   4.480   4.493
  4.525   4.537   4.576   4.593   4.640   4.668   4.719   4.841
  4.932   5.036   5.163   5.176   5.211   5.230   5.320   5.368
  5.413   5.448   5.474   5.528   5.536   5.552   5.602   5.625
  5.633   5.643   5.765   5.884   6.445   6.949   7.123   7.174
  7.177   7.475   7.585  24.002  24.111  24.164  24.229  24.300
 49.787
 
 Beta MOs
 -- Occupied --
-19.562 -10.547 -10.513 -10.495 -10.493 -10.490  -1.132  -0.915
 -0.819  -0.781  -0.713  -0.641  -0.589  -0.545  -0.521  -0.510
 -0.489  -0.470  -0.458  -0.443  -0.411  -0.404  -0.395  -0.363
 -- Virtual --
 -0.040  -0.026  -0.015  -0.012  -0.007   0.010   0.013   0.015
  0.019   0.021   0.048   0.050   0.061   0.065   0.073   0.080
  0.085   0.101   0.106   0.115   0.122   0.123   0.127   0.128
  0.139   0.145   0.146   0.153   0.157   0.161   0.170   0.192
  0.200   0.212   0.216   0.221   0.230   0.232   0.248   0.251
  0.256   0.274   0.294   0.299   0.312   0.316   0.321   0.328
  0.352   0.363   0.385   0.399   0.426   0.441   0.461   0.473
  0.501   0.512   0.520   0.533   0.537   0.547   0.562   0.562
  0.568   0.571   0.580   0.584   0.604   0.609   0.613   0.628
  0.648   0.650   0.667   0.683   0.687   0.699   0.703   0.714
  0.733   0.754   0.783   0.785   0.804   0.811   0.832   0.852
  0.912   0.923   0.945   0.952   0.977   0.986   1.016   1.036
  1.041   1.052   1.068   1.083   1.107   1.113   1.127   1.146
  1.158   1.162   1.178   1.194   1.210   1.224   1.227   1.252
  1.283   1.287   1.296   1.314   1.324   1.336   1.343   1.355
  1.367   1.380   1.403   1.415   1.419   1.430   1.450   1.456
  1.477   1.483   1.508   1.523   1.530   1.557   1.565   1.579
  1.598   1.609   1.636   1.642   1.680   1.700   1.744   1.751
  1.820   1.926   2.054   2.109   2.260   2.315   2.392   2.445
  2.494   2.511   2.524   2.564   2.584   2.596   2.667   2.695
  2.712   2.739   2.778   2.827   2.836   2.846   2.882   2.920
  2.927   2.944   2.954   2.982   3.010   3.015   3.027   3.043
  3.060   3.066   3.101   3.126   3.152   3.179   3.200   3.224
  3.246   3.271   3.273   3.290   3.320   3.333   3.338   3.374
  3.400   3.403   3.424   3.442   3.472   3.480   3.504   3.522
  3.531   3.572   3.581   3.589   3.605   3.657   3.679   3.691
  3.709   3.733   3.738   3.769   3.785   3.797   3.807   3.835
  3.866   3.872   3.898   3.936   3.940   3.982   4.000   4.014
  4.027   4.043   4.073   4.084   4.109   4.127   4.157   4.166
  4.176   4.185   4.203   4.206   4.258   4.281   4.287   4.297
  4.332   4.340   4.390   4.399   4.435   4.456   4.470   4.499
  4.520   4.545   4.551   4.613   4.628   4.658   4.690   4.811
  4.870   5.037   5.106   5.165   5.186   5.248   5.281   5.322
  5.367   5.458   5.478   5.529   5.540   5.554   5.601   5.606
  5.639   5.641   5.668   5.776   5.885   6.445   6.950   7.126
  7.176   7.178   7.475   7.586  24.014  24.115  24.164  24.234
 24.321  49.787
 --------------------------------------------------------------
 
          Ground-State Mulliken Net Atomic Charges

     Atom                 Charge (a.u.)    Spin (a.u.)
  --------------------------------------------------------
      1 C                    -0.192023      -0.083160
      2 H                     0.275922       0.035438
      3 C                     0.091318       1.048790
      4 H                     0.305828      -0.052114
      5 C                    -0.708818      -0.052849
      6 H                     0.183263       0.044067
      7 H                     0.234783       0.003536
      8 O                    -0.304024       0.016875
      9 H                     0.271122       0.000710
     10 C                    -0.685001       0.013070
     11 H                     0.189533       0.000530
     12 H                     0.201047      -0.000058
     13 H                     0.207783       0.003616
     14 C                    -0.673416       0.003412
     15 H                     0.185418       0.001559
     16 H                     0.195071       0.014379
     17 H                     0.222194       0.002200
  --------------------------------------------------------
  Sum of atomic charges =     0.000000
  Sum of spin   charges =     1.000000

 -----------------------------------------------------------------
                    Cartesian Multipole Moments
 -----------------------------------------------------------------
    Charge (ESU x 10^10)
                 0.0000
    Dipole Moment (Debye)
         X      -1.9903      Y      -0.5426      Z      -0.2288
       Tot       2.0756
    Quadrupole Moments (Debye-Ang)
        XX     -47.8973     XY      -0.8959     YY     -39.3262
        XZ      -0.4634     YZ      -1.1225     ZZ     -38.5738
    Octapole Moments (Debye-Ang^2)
       XXX     -19.6010    XXY      -2.9633    XYY       6.6674
       YYY      -0.2420    XXZ      -3.6015    XYZ      -3.9019
       YYZ       0.9879    XZZ       6.2428    YZZ      -1.5437
       ZZZ       3.1094
    Hexadecapole Moments (Debye-Ang^3)
      XXXX    -849.7843   XXXY       4.0679   XXYY    -159.3670
      XYYY      -1.6516   YYYY    -236.0741   XXXZ      -0.8443
      XXYZ      -9.4625   XYYZ       3.4309   YYYZ      -2.4283
      XXZZ    -138.6309   XYZZ      -2.8651   YYZZ     -55.2291
      XZZZ       4.7347   YZZZ      -4.1493   ZZZZ    -107.7566
 -----------------------------------------------------------------
 Calculating analytic gradient of the SCF energy
 Gradient of Coulomb and Exchange Energy
            1           2           3           4           5           6
    1   4.0617237   0.1657078  -0.7820110  -0.2822621  -2.6260601  -1.9234265
    2  -0.6954571  -0.1750348  -2.8128606  -2.9446116  -0.8620172  -3.6075866
    3  -0.3436008   4.6791679   0.5736323  -3.5537924   1.1308736   2.5199524
            7           8           9          10          11          12
    1   0.0568553 -11.0215351   0.6357839   3.8144124   0.4646314   3.5708089
    2   2.9030302  -0.1655352   3.2563312  -1.3120828  -3.8812190   0.9790583
    3   3.2441460  -1.9168526  -3.3744694  -0.3744124   0.6692816   0.9779916
           13          14          15          16          17
    1   0.7911045   2.1200422  -2.6250757   3.2467215   0.3325789
    2  -0.3665922   3.5236621   2.7457029   2.1390717   1.2761406
    3  -3.7517403   0.9367848   1.0835259   1.2678684  -3.7683565
 Gradient of SCF Energy
            1           2           3           4           5           6
    1  -0.0001253   0.0000358   0.0000307  -0.0000031   0.0001346   0.0000813
    2   0.0002852  -0.0000698   0.0002245  -0.0001994  -0.0002030   0.0000563
    3  -0.0000726  -0.0000457  -0.0001362   0.0002365   0.0004293  -0.0001032
            7           8           9          10          11          12
    1   0.0000005  -0.0002808   0.0000874   0.0000247   0.0000156  -0.0000690
    2  -0.0001013  -0.0000327   0.0002234  -0.0000175   0.0000593  -0.0000495
    3  -0.0000459  -0.0000620  -0.0002214  -0.0001029  -0.0000389  -0.0000180
           13          14          15          16          17
    1   0.0000767   0.0000044   0.0001067  -0.0000998  -0.0000202
    2  -0.0000461  -0.0001553   0.0000086  -0.0000209   0.0000382
    3   0.0000762   0.0001446  -0.0000653  -0.0000279   0.0000533
 Max gradient component =       4.293E-04
 RMS gradient           =       1.297E-04
 Gradient time:  CPU 137.16 s  wall 137.54 s
 Geometry Optimization Parameters
   NAtoms,    NIC,     NZ,  NCons,   NDum,   NFix, NCnnct, MaxDiis
       17     111      17       0       0       0       0       0

 Cartesian Hessian Update
 Hessian Updated using BFGS Update


** GEOMETRY OPTIMIZATION IN DELOCALIZED INTERNAL COORDINATES **
   Searching for a Minimum

   Optimization Cycle:   4

                       Coordinates (Angstroms)
     ATOM              X           Y           Z
      1  C        -1.011838    0.055103   -0.347478
      2  H        -1.030477    0.122284   -1.450850
      3  C         0.289449    0.615672    0.138615
      4  H         0.311079    1.280959    1.003949
      5  C         1.584297    0.270218   -0.515491
      6  H         2.007362    1.134712   -1.052208
      7  H         1.421911   -0.523890   -1.267110
      8  O         2.591984   -0.114067    0.414334
      9  H         2.218935   -0.762006    1.021756
     10  C        -2.205432    0.834032    0.213325
     11  H        -2.159227    1.892869   -0.070018
     12  H        -3.154432    0.419064   -0.149295
     13  H        -2.208973    0.776130    1.311366
     14  C        -1.125064   -1.441181    0.018350
     15  H        -0.267424   -2.011916   -0.362667
     16  H        -2.040409   -1.877840   -0.403919
     17  H        -1.159800   -1.559908    1.110225
   Point Group: c1    Number of degrees of freedom:    45


   Energy is   -272.207580048

 GETINT wrote B to file, NVib is           45
 Hessian Updated using BFGS Update

 42 Hessian modes will be used to form the next step
  Hessian Eigenvalues:
     0.001710    0.003956    0.005645    0.010326    0.011935    0.012428
     0.040806    0.049741    0.055043    0.056123    0.056146    0.057269
     0.058602    0.061837    0.075190    0.123528    0.142938    0.159715
     0.160000    0.160072    0.161944    0.167947    0.178206    0.182839
     0.220219    0.224883    0.285443    0.300926    0.328246    0.334661
     0.335238    0.335815    0.340375    0.340780    0.341185    0.341563
     0.342485    0.343012    0.346437    0.354971    0.475352    0.557997

 Minimum Search - Taking Simple RFO Step
 Searching for Lamda that Minimizes Along All modes
 Value Taken    Lamda =  -0.00001549
 Step Taken.  Stepsize is  0.083847

                             Maximum     Tolerance    Cnvgd?
         Gradient           0.000314      0.000300      NO
         Displacement       0.029218      0.001200      NO
         Energy change     -0.000013      0.000001      NO


 New Cartesian Coordinates Obtained by Inverse Iteration

 Displacement from previous Coordinates is:  0.127281
 ----------------------------------------------------
       Standard Nuclear Orientation (Angstroms)
    I     Atom         X            Y            Z
 ----------------------------------------------------
    1      C      -1.013161     0.059181    -0.349815
    2      H      -1.039337     0.131516    -1.452768
    3      C       0.288770     0.623162     0.130707
    4      H       0.309531     1.310213     0.978604
    5      C       1.584644     0.262109    -0.513227
    6      H       2.015905     1.118337    -1.056152
    7      H       1.420964    -0.537748    -1.258216
    8      O       2.584587    -0.119806     0.425402
    9      H       2.203858    -0.759309     1.037349
   10      C      -2.205826     0.831330     0.221755
   11      H      -2.167450     1.890623    -0.060677
   12      H      -3.155717     0.412270    -0.133153
   13      H      -2.199618     0.772326     1.319602
   14      C      -1.119255    -1.439091     0.009763
   15      H      -0.260099    -2.005093    -0.374064
   16      H      -2.033040    -1.877732    -0.413349
   17      H      -1.152816    -1.562054     1.101122
 ----------------------------------------------------
 Molecular Point Group                 C1    NOp =  1
 Largest Abelian Subgroup              C1    NOp =  1
 Nuclear Repulsion Energy =   243.7612102772 hartrees
 There are       25 alpha and       24 beta electrons
 Applying Cartesian multipole field
    Component          Value
    ---------          -----
     (2,0,0)        1.00000E-11
     (0,2,0)        2.00000E-11
     (0,0,2)       -3.00000E-11
 Nucleus-field energy     =     0.0000000065 hartrees
 Requested basis set is non-standard
 There are 138 shells and 314 basis functions
 A cutoff of  1.0D-11 yielded   8963 shell pairs
 There are     45935 function pairs (     55083 Cartesian)
 Smallest overlap matrix eigenvalue = 1.35E-05
 Guess MOs from SCF MO coefficient file
Reading MOs from coefficient file
Reading MOs from coefficient file
 An unrestricted hybrid HF-DFT SCF calculation will be
 performed using Pulay DIIS extrapolation
 Exchange:     0.5679 Hartree-Fock + 1.0000 M08SO
 SCF converges when DIIS error is below 1.0E-08
Geometry optimization detected.  Setting ReadMinima to 0
Setting SaveMinima to 0
 ---------------------------------------
  Cycle       Energy         DIIS Error
 ---------------------------------------
    1    -272.2058065928      1.69E-04
    2    -272.2075666242      2.23E-05
    3    -272.2075857105      1.44E-05
    4    -272.2075896104      6.29E-06
    5    -272.2075910136      2.57E-06
    6    -272.2075912606      8.71E-07
    7    -272.2075913279      3.29E-07
    8    -272.2075913365      8.89E-08
    9    -272.2075913369      2.77E-08
   10    -272.2075913369      1.15E-08
   11    -272.2075913374      3.57E-09 Convergence criterion met
 ---------------------------------------
 <S^2> = 0.7568
 SCF time:  CPU 1076.22 s  wall 1084.17 s
 SCF   energy in the final basis set = -272.2075913374
 Total energy in the final basis set = -272.2075913374
 Analysis of SCF Wavefunction
 
 --------------------------------------------------------------
                    Orbital Energies (a.u.)
 --------------------------------------------------------------
 
 Alpha MOs
 -- Occupied --
-19.563 -10.546 -10.512 -10.511 -10.494 -10.490  -1.136  -0.921
 -0.825  -0.784  -0.720  -0.650  -0.592  -0.550  -0.527  -0.521
 -0.493  -0.471  -0.459  -0.447  -0.419  -0.405  -0.395  -0.366
 -0.264
 -- Virtual --
 -0.026  -0.013  -0.011  -0.007   0.013   0.016   0.018   0.020
  0.022   0.051   0.052   0.066   0.068   0.075   0.082   0.090
  0.101   0.108   0.118   0.124   0.125   0.129   0.132   0.142
  0.147   0.150   0.155   0.161   0.164   0.173   0.191   0.201
  0.210   0.215   0.224   0.227   0.232   0.245   0.251   0.256
  0.266   0.292   0.298   0.310   0.315   0.320   0.324   0.350
  0.354   0.381   0.398   0.423   0.439   0.460   0.472   0.495
  0.509   0.518   0.520   0.532   0.536   0.552   0.562   0.567
  0.571   0.578   0.582   0.588   0.606   0.609   0.616   0.638
  0.646   0.658   0.664   0.682   0.694   0.702   0.709   0.726
  0.750   0.771   0.784   0.799   0.811   0.825   0.847   0.909
  0.920   0.941   0.949   0.976   0.981   1.012   1.032   1.038
  1.049   1.066   1.075   1.102   1.109   1.123   1.140   1.154
  1.156   1.174   1.192   1.206   1.217   1.228   1.248   1.276
  1.278   1.289   1.310   1.321   1.332   1.336   1.353   1.362
  1.370   1.391   1.406   1.413   1.425   1.438   1.449   1.472
  1.478   1.502   1.511   1.523   1.546   1.563   1.577   1.594
  1.603   1.628   1.633   1.663   1.689   1.723   1.742   1.809
  1.922   2.039   2.102   2.261   2.312   2.390   2.434   2.487
  2.496   2.511   2.545   2.570   2.578   2.647   2.675   2.693
  2.716   2.738   2.764   2.803   2.812   2.837   2.847   2.887
  2.916   2.920   2.937   2.942   2.990   3.010   3.024   3.046
  3.059   3.089   3.111   3.117   3.152   3.174   3.213   3.222
  3.248   3.259   3.271   3.292   3.322   3.331   3.341   3.357
  3.381   3.398   3.427   3.431   3.464   3.476   3.502   3.524
  3.553   3.564   3.575   3.578   3.627   3.638   3.668   3.701
  3.726   3.728   3.757   3.772   3.781   3.787   3.813   3.854
  3.861   3.892   3.920   3.937   3.978   3.988   4.006   4.018
  4.021   4.047   4.068   4.093   4.117   4.136   4.164   4.169
  4.178   4.190   4.200   4.252   4.256   4.261   4.278   4.296
  4.318   4.336   4.376   4.414   4.430   4.434   4.480   4.495
  4.525   4.538   4.577   4.592   4.640   4.668   4.719   4.841
  4.933   5.037   5.163   5.176   5.212   5.231   5.320   5.369
  5.413   5.450   5.475   5.528   5.536   5.552   5.603   5.626
  5.634   5.644   5.765   5.884   6.446   6.949   7.122   7.175
  7.177   7.476   7.585  24.003  24.112  24.165  24.229  24.301
 49.787
 
 Beta MOs
 -- Occupied --
-19.562 -10.547 -10.513 -10.495 -10.493 -10.490  -1.132  -0.915
 -0.819  -0.781  -0.713  -0.641  -0.589  -0.545  -0.521  -0.510
 -0.490  -0.470  -0.458  -0.443  -0.411  -0.404  -0.395  -0.363
 -- Virtual --
 -0.040  -0.026  -0.015  -0.012  -0.007   0.010   0.013   0.015
  0.018   0.021   0.049   0.050   0.062   0.065   0.073   0.079
  0.085   0.101   0.106   0.115   0.122   0.123   0.127   0.128
  0.139   0.145   0.147   0.153   0.158   0.161   0.171   0.192
  0.200   0.212   0.216   0.221   0.229   0.233   0.248   0.250
  0.256   0.273   0.294   0.299   0.312   0.316   0.321   0.329
  0.353   0.363   0.385   0.399   0.425   0.441   0.461   0.472
  0.501   0.512   0.520   0.534   0.538   0.547   0.561   0.562
  0.568   0.571   0.580   0.585   0.604   0.610   0.613   0.629
  0.648   0.650   0.667   0.682   0.687   0.700   0.703   0.714
  0.733   0.755   0.785   0.786   0.801   0.812   0.830   0.852
  0.911   0.923   0.946   0.953   0.977   0.985   1.016   1.037
  1.041   1.053   1.068   1.083   1.106   1.113   1.127   1.146
  1.158   1.162   1.178   1.195   1.212   1.224   1.228   1.251
  1.283   1.286   1.296   1.314   1.323   1.337   1.343   1.354
  1.371   1.380   1.403   1.415   1.420   1.431   1.450   1.455
  1.477   1.483   1.509   1.522   1.531   1.557   1.565   1.580
  1.598   1.609   1.636   1.642   1.681   1.698   1.744   1.752
  1.819   1.926   2.053   2.109   2.261   2.315   2.392   2.446
  2.495   2.509   2.525   2.564   2.583   2.596   2.668   2.694
  2.712   2.739   2.779   2.828   2.836   2.848   2.883   2.920
  2.927   2.943   2.955   2.982   3.009   3.015   3.028   3.044
  3.059   3.067   3.100   3.127   3.151   3.181   3.202   3.224
  3.246   3.271   3.272   3.287   3.318   3.333   3.338   3.374
  3.399   3.403   3.423   3.444   3.473   3.482   3.506   3.520
  3.533   3.571   3.581   3.588   3.608   3.657   3.679   3.691
  3.709   3.734   3.738   3.769   3.785   3.797   3.806   3.834
  3.865   3.873   3.900   3.935   3.942   3.983   4.000   4.014
  4.027   4.043   4.074   4.085   4.107   4.128   4.156   4.167
  4.177   4.186   4.203   4.209   4.259   4.281   4.288   4.299
  4.333   4.338   4.392   4.399   4.434   4.457   4.468   4.497
  4.522   4.544   4.552   4.612   4.627   4.660   4.690   4.811
  4.870   5.038   5.107   5.165   5.186   5.249   5.282   5.322
  5.367   5.458   5.480   5.529   5.541   5.554   5.601   5.606
  5.640   5.641   5.668   5.776   5.885   6.446   6.950   7.125
  7.177   7.178   7.475   7.586  24.015  24.116  24.165  24.234
 24.321  49.787
 --------------------------------------------------------------
 
          Ground-State Mulliken Net Atomic Charges

     Atom                 Charge (a.u.)    Spin (a.u.)
  --------------------------------------------------------
      1 C                    -0.185991      -0.084280
      2 H                     0.274161       0.037455
      3 C                     0.087617       1.047929
      4 H                     0.307446      -0.051929
      5 C                    -0.709333      -0.051302
      6 H                     0.183867       0.043427
      7 H                     0.235058       0.002909
      8 O                    -0.302908       0.016926
      9 H                     0.270848       0.000591
     10 C                    -0.691472       0.012838
     11 H                     0.190502       0.000576
     12 H                     0.200732      -0.000262
     13 H                     0.208507       0.003715
     14 C                    -0.671733       0.003596
     15 H                     0.185025       0.001373
     16 H                     0.196218       0.013981
     17 H                     0.221457       0.002456
  --------------------------------------------------------
  Sum of atomic charges =     0.000000
  Sum of spin   charges =     1.000000

 -----------------------------------------------------------------
                    Cartesian Multipole Moments
 -----------------------------------------------------------------
    Charge (ESU x 10^10)
                 0.0000
    Dipole Moment (Debye)
         X      -1.9942      Y      -0.5267      Z      -0.2365
       Tot       2.0761
    Quadrupole Moments (Debye-Ang)
        XX     -47.8838     XY      -0.8434     YY     -39.3176
        XZ      -0.5051     YZ      -1.1181     ZZ     -38.5772
    Octapole Moments (Debye-Ang^2)
       XXX     -19.4443    XXY      -2.7526    XYY       6.5836
       YYY      -0.1367    XXZ      -3.8049    XYZ      -3.8668
       YYZ       1.0239    XZZ       6.2943    YZZ      -1.5998
       ZZZ       3.0910
    Hexadecapole Moments (Debye-Ang^3)
      XXXX    -847.2087   XXXY       5.3632   XXYY    -159.2206
      XYYY      -0.9539   YYYY    -235.9066   XXXZ      -1.8209
      XXYZ      -9.4765   XYYZ       3.3356   YYYZ      -2.6786
      XXZZ    -138.4212   XYZZ      -2.6990   YYZZ     -55.2228
      XZZZ       4.5966   YZZZ      -4.7479   ZZZZ    -107.9630
 -----------------------------------------------------------------
 Calculating analytic gradient of the SCF energy
 Gradient of Coulomb and Exchange Energy
            1           2           3           4           5           6
    1   4.0724805   0.1981920  -0.8765837  -0.2836613  -2.5702514  -1.9625031
    2  -0.7039505  -0.2001016  -2.8121147  -3.0451653  -0.8384791  -3.5765275
    3  -0.4169636   4.6760151   0.6414570  -3.4753603   1.1319568   2.5424240
            7           8           9          10          11          12
    1   0.0601936 -11.0157726   0.6735007   3.8399745   0.4868702   3.5752413
    2   2.9293796  -0.1316604   3.2224587  -1.2808892  -3.8760486   0.9952258
    3   3.2178217  -1.9727316  -3.4050726  -0.3495381   0.6618092   0.9456192
           13          14          15          16          17
    1   0.7563524   2.1033879  -2.6297565   3.2420214   0.3303141
    2  -0.3624731   3.4998599   2.7342982   2.1508925   1.2952950
    3  -3.7592532   0.9526630   1.0942345   1.2786432  -3.7637242
 Gradient of SCF Energy
            1           2           3           4           5           6
[...]
 H         -0.309 -0.064  0.218    0.193 -0.269  0.229    0.224 -0.080 -0.019
 O          0.023 -0.030  0.017    0.013 -0.003 -0.028    0.020 -0.001  0.003
 H         -0.119  0.014 -0.088   -0.393  0.145 -0.314   -0.245  0.095 -0.180
 C         -0.019 -0.052  0.017    0.011 -0.016 -0.080   -0.029 -0.055  0.086
 H          0.174 -0.050 -0.109    0.079  0.026  0.092    0.170 -0.074 -0.166
 H         -0.115  0.119 -0.004   -0.057 -0.014  0.114   -0.103  0.165 -0.068
 H         -0.058  0.113  0.029    0.307 -0.088 -0.099   -0.254  0.240  0.122
 C         -0.022 -0.007  0.043    0.031 -0.028 -0.022   -0.060 -0.019  0.060
 H         -0.026  0.115 -0.083    0.012 -0.176  0.078   -0.013  0.235 -0.094
 H          0.052 -0.041 -0.076   -0.036  0.002  0.086    0.106 -0.170 -0.082
 H          0.049 -0.188  0.007   -0.066  0.090  0.008    0.144 -0.212  0.014
 TransDip   0.000  0.000  0.000    0.000  0.000  0.000    0.000  0.000  0.000

 Mode:                22                     23                     24
 Frequency:      1196.96                1274.81                1303.50
 Force Cnst:      1.2907                 1.2601                 1.4327
 Red. Mass:       1.5290                 1.3160                 1.4311
 IR Active:          YES                    YES                    YES
 IR Intens:        0.000                  0.000                  0.000
 Raman Active:       YES                    YES                    YES
               X      Y      Z        X      Y      Z        X      Y      Z
 C          0.021  0.122  0.051   -0.080 -0.033 -0.042    0.022 -0.158 -0.047
 H          0.102  0.434  0.068    0.535  0.176 -0.077   -0.186  0.860  0.062
 C          0.015 -0.093 -0.081   -0.084 -0.023 -0.002    0.026  0.028 -0.003
 H         -0.313 -0.134 -0.087    0.503  0.084 -0.041   -0.019  0.000  0.021
 C         -0.020  0.069  0.001   -0.001  0.069  0.018   -0.006 -0.023  0.002
 H          0.380 -0.196 -0.018    0.269 -0.129 -0.096   -0.066  0.025  0.041
 H         -0.274  0.080  0.014    0.264 -0.214  0.164   -0.048  0.052 -0.042
 O         -0.022 -0.004  0.002   -0.019 -0.009 -0.024    0.007  0.005  0.004
 H          0.341 -0.132  0.263    0.183 -0.071  0.130   -0.073  0.033 -0.053
 C         -0.025 -0.060 -0.036    0.029  0.011  0.051   -0.004  0.041 -0.024
 H          0.216 -0.018 -0.007   -0.021 -0.035 -0.111   -0.163  0.040  0.073
 H         -0.165  0.107  0.088    0.126 -0.040 -0.127   -0.008 -0.046  0.096
 H          0.169  0.073 -0.033   -0.128  0.001  0.051   -0.026 -0.108 -0.033
 C         -0.005 -0.036  0.038    0.024  0.001  0.024    0.006  0.036  0.072
 H          0.005  0.029  0.002   -0.028 -0.003 -0.062   -0.082  0.068 -0.127
 H          0.017 -0.036 -0.010   -0.029  0.119 -0.040    0.047  0.104 -0.122
 H          0.054 -0.156  0.018   -0.044 -0.049  0.015    0.008 -0.214  0.029
 TransDip   0.000  0.000  0.000    0.000  0.000  0.000    0.000  0.000  0.000

 Mode:                25                     26                     27
 Frequency:      1325.89                1370.96                1380.20
 Force Cnst:      1.2567                 1.3886                 1.4578
 Red. Mass:       1.2133                 1.2540                 1.2989
 IR Active:          YES                    YES                    YES
 IR Intens:        0.000                  0.000                  0.000
 Raman Active:       YES                    YES                    YES
               X      Y      Z        X      Y      Z        X      Y      Z
 C          0.084 -0.002 -0.004    0.049  0.018  0.002    0.083  0.003  0.000
 H         -0.387 -0.011  0.039   -0.158 -0.001  0.018   -0.237 -0.043  0.026
 C         -0.004  0.011  0.035   -0.049 -0.018 -0.001   -0.043 -0.021  0.007
 H         -0.066  0.008  0.031    0.170  0.023 -0.021    0.157  0.020 -0.019
 C         -0.014  0.062 -0.026   -0.023 -0.007  0.014   -0.088  0.005  0.008
 H         -0.167  0.131 -0.165    0.249 -0.167  0.079    0.503 -0.312  0.275
 H          0.558 -0.382  0.210    0.003  0.038 -0.022    0.240 -0.142  0.072
 O         -0.039 -0.032 -0.019    0.021  0.014 -0.003    0.037  0.023 -0.015
 H          0.339 -0.158  0.256   -0.176  0.087 -0.136   -0.283  0.147 -0.220
 C         -0.015 -0.003 -0.026    0.035 -0.025 -0.033   -0.040  0.008 -0.002
 H         -0.040  0.024  0.090   -0.173  0.001  0.173    0.091  0.028  0.014
 H         -0.087  0.042  0.088   -0.148  0.150  0.146    0.011 -0.057 -0.016
 H          0.013  0.024 -0.020   -0.176  0.140  0.003    0.111 -0.009 -0.013
 C         -0.022 -0.009  0.002   -0.003 -0.108  0.023   -0.028  0.061 -0.014
 H          0.033  0.088  0.025    0.121  0.409 -0.160   -0.052 -0.195  0.133
 H         -0.002 -0.006 -0.034   -0.177  0.330 -0.190    0.139 -0.244  0.055
 H          0.083  0.029  0.001    0.020  0.446  0.091    0.106 -0.225 -0.057
 TransDip   0.000  0.000  0.000    0.000  0.000  0.000    0.000  0.000  0.000

 Mode:                28                     29                     30
 Frequency:      1396.52                1420.54                1466.88
 Force Cnst:      1.4848                 2.0697                 1.3353
 Red. Mass:       1.2921                 1.7408                 1.0532
 IR Active:          YES                    YES                    YES
 IR Intens:        0.000                  0.000                  0.000
 Raman Active:       YES                    YES                    YES
               X      Y      Z        X      Y      Z        X      Y      Z
 C          0.045 -0.009 -0.011   -0.114 -0.008  0.007   -0.020  0.014  0.005
 H         -0.098  0.037  0.001    0.220  0.008 -0.016    0.035 -0.011 -0.002
 C         -0.019  0.000  0.003    0.181  0.036  0.001    0.006 -0.001 -0.003
 H          0.053  0.014  0.002   -0.546 -0.089  0.042   -0.019 -0.007  0.000
 C          0.011 -0.005  0.001   -0.125  0.005 -0.013    0.009  0.002 -0.012
 H         -0.026  0.011 -0.032    0.141 -0.096  0.280   -0.006  0.043  0.129
 H         -0.029  0.035 -0.022    0.399 -0.286  0.130   -0.079 -0.095  0.063
 O         -0.001 -0.001  0.002    0.016  0.009 -0.013   -0.001  0.002 -0.002
 H          0.001 -0.001  0.004   -0.133  0.064 -0.111   -0.009  0.005 -0.010
 C         -0.119  0.048  0.055    0.011  0.006  0.013    0.027  0.029  0.006
 H          0.420  0.036 -0.265    0.020 -0.032 -0.148   -0.014 -0.067 -0.357
 H          0.254 -0.306 -0.309    0.038 -0.012 -0.035   -0.105  0.047  0.276
 H          0.481 -0.202 -0.014    0.026 -0.124 -0.002   -0.174 -0.443 -0.031
 C         -0.008 -0.055  0.019    0.037 -0.037  0.006   -0.040 -0.008 -0.001
 H          0.057  0.214 -0.081    0.003  0.115 -0.167    0.090 -0.131  0.327
 H         -0.078  0.180 -0.154   -0.090  0.128  0.037   -0.009  0.165 -0.290
 H          0.066  0.237  0.052   -0.217  0.140  0.044    0.511  0.038 -0.025
 TransDip   0.000  0.000  0.000    0.000  0.000  0.000    0.000  0.000  0.000

 Mode:                31                     32                     33
 Frequency:      1470.14                1479.26                1490.09
 Force Cnst:      1.3297                 1.3691                 1.3809
 Red. Mass:       1.0442                 1.0620                 1.0556
 IR Active:          YES                    YES                    YES
 IR Intens:        0.000                  0.000                  0.000
 Raman Active:       YES                    YES                    YES
               X      Y      Z        X      Y      Z        X      Y      Z
 C          0.015 -0.012  0.002    0.028  0.019 -0.013   -0.022 -0.015 -0.024
 H         -0.053  0.047  0.014   -0.035 -0.010 -0.013    0.050  0.045 -0.029
 C         -0.004 -0.001  0.000   -0.009 -0.007  0.001    0.007  0.007  0.003
 H          0.018  0.001 -0.001    0.029  0.006 -0.011   -0.010  0.004  0.006
 C         -0.005 -0.003  0.009   -0.020 -0.005  0.032    0.019  0.002 -0.029
 H          0.010 -0.031 -0.068    0.024 -0.105 -0.286   -0.024  0.097  0.275
 H          0.033  0.058 -0.036    0.159  0.220 -0.138   -0.158 -0.208  0.128
 O          0.002  0.001  0.001    0.003 -0.002  0.004   -0.002  0.003 -0.003
 H         -0.019  0.004 -0.021   -0.014  0.001 -0.011   -0.008  0.000 -0.020
 C          0.010 -0.012  0.038   -0.002  0.034 -0.011   -0.014 -0.006 -0.019
 H         -0.388 -0.123 -0.269    0.243  0.017 -0.168    0.209  0.097  0.316
 H         -0.122  0.409 -0.308   -0.028 -0.199  0.400    0.132 -0.250  0.014
 H          0.312 -0.083 -0.003   -0.291 -0.335 -0.023   -0.097  0.262  0.019
 C          0.000 -0.004 -0.033    0.017 -0.007 -0.021   -0.008 -0.011 -0.032
 H          0.224  0.200  0.240    0.117  0.222  0.001    0.284  0.196  0.365
 H         -0.223  0.121  0.303   -0.154 -0.009  0.359   -0.267  0.224  0.227
 H         -0.020 -0.228 -0.051   -0.268 -0.181 -0.020    0.140 -0.243 -0.063
 TransDip   0.000  0.000  0.000    0.000  0.000  0.000    0.000  0.000  0.000

 Mode:                34                     35                     36
 Frequency:      1493.15                2912.37                2952.38
 Force Cnst:      1.4856                 5.4026                 5.4842
 Red. Mass:       1.1310                 1.0811                 1.0679
 IR Active:          YES                    YES                    YES
 IR Intens:        0.000                  0.000                  0.000
 Raman Active:       YES                    YES                    YES
               X      Y      Z        X      Y      Z        X      Y      Z
 C          0.044  0.014  0.003   -0.006  0.007 -0.080    0.000  0.000 -0.003
 H         -0.063 -0.018  0.007    0.088 -0.086  0.982    0.008 -0.002  0.035
 C         -0.044 -0.008 -0.001   -0.001  0.000  0.000   -0.001  0.001  0.001
 H          0.093  0.013 -0.006   -0.001 -0.004 -0.013    0.002 -0.016 -0.019
 C          0.053  0.013 -0.055    0.000  0.001  0.003    0.008 -0.025 -0.069
 H         -0.020  0.179  0.477    0.003  0.008  0.000   -0.140 -0.231  0.040
 H         -0.344 -0.366  0.235   -0.007 -0.020 -0.032    0.079  0.517  0.802
 O         -0.005  0.003 -0.005    0.000  0.000  0.000   -0.001  0.001 -0.001
 H          0.035 -0.013  0.023    0.000 -0.001  0.000    0.003  0.005 -0.003
 C          0.003  0.014  0.009    0.002 -0.001  0.007    0.001  0.000  0.000
 H         -0.036 -0.045 -0.216    0.001  0.022 -0.004    0.000  0.003 -0.001
 H         -0.080  0.074  0.108   -0.015 -0.014 -0.006   -0.007 -0.005 -0.003
 H         -0.033 -0.233 -0.014   -0.006  0.007 -0.069   -0.001  0.000  0.003
 C          0.023 -0.001  0.003    0.000  0.000  0.006    0.000 -0.001  0.002
 H         -0.073  0.118 -0.266    0.017 -0.003 -0.006   -0.011  0.007  0.005
 H          0.022 -0.138  0.187   -0.017 -0.008 -0.005    0.008  0.006  0.004
 H         -0.363  0.009  0.026   -0.004  0.009 -0.074   -0.003  0.004 -0.031
 TransDip   0.000  0.000  0.000    0.000  0.000  0.000    0.000  0.000  0.000

 Mode:                37                     38                     39
 Frequency:      2965.57                2976.56                3021.04
 Force Cnst:      5.3591                 5.4126                 5.8819
 Red. Mass:       1.0343                 1.0369                 1.0938
 IR Active:          YES                    YES                    YES
 IR Intens:        0.000                  0.000                  0.000
 Raman Active:       YES                    YES                    YES
               X      Y      Z        X      Y      Z        X      Y      Z
 C          0.000 -0.001 -0.002   -0.001  0.001 -0.002    0.000  0.000  0.000
 H          0.003  0.000  0.025    0.005 -0.003  0.028    0.002  0.000  0.001
 C         -0.001  0.000  0.000    0.000  0.000  0.000   -0.001  0.002  0.002
 H          0.002 -0.003 -0.005    0.003 -0.004 -0.005    0.001 -0.029 -0.034
 C          0.000 -0.001 -0.002    0.000  0.001  0.001   -0.044 -0.077 -0.002
 H         -0.003 -0.006  0.001    0.000 -0.001  0.000    0.512  0.792 -0.195
 H          0.003  0.016  0.026   -0.001 -0.004 -0.007    0.010  0.128  0.215
 O          0.000  0.000  0.000    0.000  0.000  0.000    0.001  0.000  0.000
 H          0.000 -0.003  0.003    0.000  0.000  0.000   -0.010 -0.008  0.000
 C         -0.002  0.000  0.002    0.034 -0.013 -0.036    0.000  0.000 -0.001
 H          0.001 -0.024  0.007   -0.054  0.478 -0.116    0.001 -0.004  0.001
 H          0.022  0.015  0.010   -0.396 -0.251 -0.166    0.000  0.000  0.000
 H         -0.004  0.005 -0.038    0.050 -0.072  0.703    0.000 -0.001  0.008
 C         -0.010  0.045 -0.015   -0.001  0.003 -0.001   -0.002  0.000  0.001
 H          0.485 -0.204 -0.258    0.028 -0.013 -0.014    0.017 -0.006 -0.009
 H         -0.402 -0.250 -0.182   -0.020 -0.014 -0.009    0.008  0.006  0.004
 H          0.034 -0.080  0.621    0.003 -0.006  0.031   -0.001  0.002 -0.013
 TransDip   0.000  0.000  0.000    0.000  0.000  0.000    0.000  0.000  0.000

 Mode:                40                     41                     42
 Frequency:      3036.97                3043.50                3045.69
 Force Cnst:      5.9918                 6.0098                 6.0130
 Red. Mass:       1.1026                 1.1012                 1.1002
 IR Active:          YES                    YES                    YES
 IR Intens:        0.000                  0.000                  0.000
 Raman Active:       YES                    YES                    YES
               X      Y      Z        X      Y      Z        X      Y      Z
 C          0.000  0.000 -0.006   -0.001  0.000  0.001   -0.001  0.001 -0.008
 H          0.005 -0.007  0.056    0.001 -0.001 -0.009    0.006 -0.007  0.084
 C          0.000  0.000  0.001    0.000  0.000  0.000    0.000  0.000  0.001
 H          0.001 -0.005 -0.006    0.000  0.002  0.003    0.002 -0.002 -0.004
 C         -0.001 -0.002 -0.001    0.000  0.000  0.000    0.001  0.001  0.000
 H          0.011  0.017 -0.004   -0.004 -0.006  0.001   -0.007 -0.010  0.003
 H          0.000  0.008  0.013    0.001  0.001  0.002    0.000  0.001  0.002
 O          0.000  0.000  0.000    0.000  0.000  0.000    0.000  0.000  0.000
 H         -0.001 -0.001 -0.002    0.001 -0.001  0.002    0.001 -0.001  0.001
 C          0.003 -0.003  0.007    0.025 -0.010  0.043   -0.035  0.021 -0.064
 H         -0.005  0.049 -0.009   -0.024  0.245 -0.045    0.044 -0.410  0.079
 H         -0.035 -0.022 -0.013   -0.246 -0.161 -0.091    0.338  0.217  0.121
 H         -0.005  0.008 -0.061   -0.020  0.037 -0.380    0.028 -0.052  0.566
 C          0.047 -0.013 -0.078   -0.068 -0.017 -0.032   -0.040 -0.013 -0.029
 H         -0.609  0.266  0.306    0.246 -0.118 -0.145    0.100 -0.049 -0.062
 H         -0.002 -0.012 -0.025    0.560  0.368  0.250    0.372  0.245  0.164
 H          0.049 -0.097  0.657    0.001 -0.043  0.280    0.007 -0.042  0.253
 TransDip   0.000  0.000  0.000    0.000  0.000  0.000    0.000  0.000  0.000

 Mode:                43                     44                     45
 Frequency:      3059.77                3145.30                3880.81
 Force Cnst:      6.0809                 6.3436                 9.4642
 Red. Mass:       1.1024                 1.0883                 1.0666
 IR Active:          YES                    YES                    YES
 IR Intens:        0.000                  0.000                  0.000
 Raman Active:       YES                    YES                    YES
               X      Y      Z        X      Y      Z        X      Y      Z
 C         -0.001 -0.001  0.000    0.002  0.001 -0.001    0.000  0.000  0.000
 H          0.000  0.001 -0.002    0.003 -0.001  0.014    0.000  0.000  0.000
 C          0.000  0.001  0.001    0.006 -0.058 -0.062    0.000  0.000  0.000
 H          0.003 -0.008 -0.008   -0.074  0.674  0.728    0.000  0.000  0.001
 C          0.000  0.000  0.000   -0.004 -0.003 -0.002   -0.002 -0.001  0.000
 H          0.001  0.001  0.000    0.021  0.027 -0.008    0.006  0.009 -0.002
 H          0.000  0.002  0.004    0.001  0.019  0.029   -0.002  0.000 -0.003
 O          0.000  0.000  0.000    0.000  0.000  0.000   -0.033 -0.046  0.026
 H          0.000  0.000  0.000   -0.001 -0.002 -0.001    0.545  0.732 -0.404
 C         -0.038 -0.084 -0.004    0.000 -0.001 -0.001    0.000  0.000  0.000
 H         -0.095  0.690 -0.161   -0.003  0.008 -0.002    0.000  0.000  0.000
 H          0.560  0.336  0.225    0.004  0.005  0.004    0.000  0.000  0.000
 H         -0.009 -0.017 -0.015   -0.002 -0.001  0.008    0.000  0.000  0.000
 C         -0.003  0.000 -0.001    0.000  0.001 -0.001    0.000  0.000  0.000
 H          0.012 -0.005 -0.006   -0.001  0.001  0.001    0.002  0.000 -0.002
 H          0.023  0.018  0.011   -0.002 -0.002  0.000    0.000 -0.001  0.000
 H         -0.001 -0.001  0.006    0.000 -0.002  0.007   -0.001  0.000  0.003
 TransDip   0.000  0.000  0.000    0.000  0.000  0.000    0.000  0.000  0.000

 STANDARD THERMODYNAMIC QUANTITIES AT   298.15 K  AND     1.00 ATM

   This Molecule has  0 Imaginary Frequencies
   Zero point vibrational energy:       93.614 kcal/mol

   Atom    1 Element C  Has Mass   12.00000
   Atom    2 Element H  Has Mass    1.00783
   Atom    3 Element C  Has Mass   12.00000
   Atom    4 Element H  Has Mass    1.00783
   Atom    5 Element C  Has Mass   12.00000
   Atom    6 Element H  Has Mass    1.00783
   Atom    7 Element H  Has Mass    1.00783
   Atom    8 Element O  Has Mass   15.99491
   Atom    9 Element H  Has Mass    1.00783
   Atom   10 Element C  Has Mass   12.00000
   Atom   11 Element H  Has Mass    1.00783
   Atom   12 Element H  Has Mass    1.00783
   Atom   13 Element H  Has Mass    1.00783
   Atom   14 Element C  Has Mass   12.00000
   Atom   15 Element H  Has Mass    1.00783
   Atom   16 Element H  Has Mass    1.00783
   Atom   17 Element H  Has Mass    1.00783
   Molecular Mass:    87.081040 amu
   Principal axes and moments of inertia in atomic units:
                             1           2           3
    Eigenvalues --      279.60222   914.31182  1062.31853
          X               0.99989     0.00253    -0.01485
          Y              -0.00236     0.99993     0.01167
          Z               0.01488    -0.01164     0.99982
   Rotational Symmetry Number is   1
   The Molecule is an Asymmetric Top
   Translational Enthalpy:        0.889 kcal/mol
   Rotational Enthalpy:           0.889 kcal/mol
   Vibrational Enthalpy:         97.072 kcal/mol
   gas constant (RT):             0.592 kcal/mol
   Translational Entropy:        39.306  cal/mol.K
   Rotational Entropy:           27.098  cal/mol.K
   Vibrational Entropy:          21.202  cal/mol.K

   Total Enthalpy:               99.442 kcal/mol
   Total Entropy:                87.606  cal/mol.K
Archival summary:
1\1\node68\FREQ\ProcedureUnspecified\BasisUnspecified\1511(2)\edames\ThuApr1015:22:402014ThuApr1015:22:402014\0\\#,FREQ,ProcedureUnspecified,BasisUnspecified,\\0,2\C\H,1,1.10652\C,1,1.49846,2,108.209\H,3,1.0911,1,119.837,2,-128.062,0\C,3,1.49194,1,121.096,2,58.8042,0\H,5,1.09803,3,111.482,1,-138.402,0\H,5,1.10441,3,109.953,1,-19.2498,0\O,5,1.4319,3,112.565,1,103.774,0\H,8,0.964011,5,108.643,3,-46.1131,0\C,1,1.53112,2,108.683,3,-121.451,0\H,10,1.0971,1,111.2,2,61.4314,0\H,10,1.09717,1,111.186,2,-59.3919,0\H,10,1.0993,1,110.081,2,-178.944,0\C,1,1.5437,2,106.896,3,119.111,0\H,14,1.09796,1,110.878,2,58.6012,0\H,14,1.09911,1,111.436,2,-61.4018,0\H,14,1.09973,1,110.151,2,178.105,0\\\@

 Total job time:  82781.88s(wall), 82151.01s(cpu) 
 Thu Apr 10 15:22:40 2014

        *************************************************************
        *                                                           *
        *  Thank you very much for using Q-Chem.  Have a nice day.  *
        *                                                           *
        *************************************************************


0 sent ACK to 0 
now end server 0 ... 
cleanup process ... done
remove work dirs /tmp/qchem19553.0 -- /tmp/qchem19553.3
rm -rf /tmp/qchem19553.0
rm -rf /tmp/qchem19553.1
rm -rf /tmp/qchem19553.2
rm -rf /tmp/qchem19553.3
rm -rf /tmp/qchem19553
