 Entering Gaussian System, Link 0=g03
 Input=vinyl.com
 Output=vinyl.log
 Initial command:
 /home/g03/l1.exe /home/g03scratch/cfgold/Gau-21476.inp -scrdir=/home/g03scratch/cfgold/
 Entering Link 1 = /home/g03/l1.exe PID=     21477.
  
 Copyright (c) 1988,1990,1992,1993,1995,1998,2003, Gaussian, Inc.
                  All Rights Reserved.
  
 This is the Gaussian(R) 03 program.  It is based on the
 the Gaussian(R) 98 system (copyright 1998, Gaussian, Inc.),
 the Gaussian(R) 94 system (copyright 1995, Gaussian, Inc.),
 the Gaussian 92(TM) system (copyright 1992, Gaussian, Inc.),
 the Gaussian 90(TM) system (copyright 1990, Gaussian, Inc.),
 the Gaussian 88(TM) system (copyright 1988, Gaussian, Inc.),
 the Gaussian 86(TM) system (copyright 1986, Carnegie Mellon
 University), and the Gaussian 82(TM) system (copyright 1983,
 Carnegie Mellon University). Gaussian is a federally registered
 trademark of Gaussian, Inc.
  
 This software contains proprietary and confidential information,
 including trade secrets, belonging to Gaussian, Inc.
  
 This software is provided under written license and may be
 used, copied, transmitted, or stored only in accord with that
 written license.
  
 The following legend is applicable only to US Government
 contracts under DFARS:
  
                    RESTRICTED RIGHTS LEGEND
  
 Use, duplication or disclosure by the US Government is subject
 to restrictions as set forth in subparagraph (c)(1)(ii) of the
 Rights in Technical Data and Computer Software clause at DFARS
 252.227-7013.
  
 Gaussian, Inc.
 Carnegie Office Park, Building 6, Pittsburgh, PA 15106 USA
  
 The following legend is applicable only to US Government
 contracts under FAR:
  
                    RESTRICTED RIGHTS LEGEND
  
 Use, reproduction and disclosure by the US Government is subject
 to restrictions as set forth in subparagraph (c) of the
 Commercial Computer Software - Restricted Rights clause at FAR
 52.227-19.
  
 Gaussian, Inc.
 Carnegie Office Park, Building 6, Pittsburgh, PA 15106 USA
  
  
 ---------------------------------------------------------------
 Warning -- This program may not be used in any manner that
 competes with the business of Gaussian, Inc. or will provide
 assistance to any competitor of Gaussian, Inc.  The licensee
 of this program is prohibited from giving any competitor of
 Gaussian, Inc. access to this program.  By using this program,
 the user acknowledges that Gaussian, Inc. is engaged in the
 business of creating and licensing software in the field of
 computational chemistry and represents and warrants to the
 licensee that it is not a competitor of Gaussian, Inc. and that
 it will not use this program in any manner prohibited above.
 ---------------------------------------------------------------
  

 Cite this work as:
 Gaussian 03, Revision B.05,
 M. J. Frisch, G. W. Trucks, H. B. Schlegel, G. E. Scuseria, 
 M. A. Robb, J. R. Cheeseman, J. A. Montgomery, Jr., T. Vreven, 
 K. N. Kudin, J. C. Burant, J. M. Millam, S. S. Iyengar, J. Tomasi, 
 V. Barone, B. Mennucci, M. Cossi, G. Scalmani, N. Rega, 
 G. A. Petersson, H. Nakatsuji, M. Hada, M. Ehara, K. Toyota, 
 R. Fukuda, J. Hasegawa, M. Ishida, T. Nakajima, Y. Honda, O. Kitao, 
 H. Nakai, M. Klene, X. Li, J. E. Knox, H. P. Hratchian, J. B. Cross, 
 C. Adamo, J. Jaramillo, R. Gomperts, R. E. Stratmann, O. Yazyev, 
 A. J. Austin, R. Cammi, C. Pomelli, J. W. Ochterski, P. Y. Ayala, 
 K. Morokuma, G. A. Voth, P. Salvador, J. J. Dannenberg, 
 V. G. Zakrzewski, S. Dapprich, A. D. Daniels, M. C. Strain, 
 O. Farkas, D. K. Malick, A. D. Rabuck, K. Raghavachari, 
 J. B. Foresman, J. V. Ortiz, Q. Cui, A. G. Baboul, S. Clifford, 
 J. Cioslowski, B. B. Stefanov, G. Liu, A. Liashenko, P. Piskorz, 
 I. Komaromi, R. L. Martin, D. J. Fox, T. Keith, M. A. Al-Laham, 
 C. Y. Peng, A. Nanayakkara, M. Challacombe, P. M. W. Gill, 
 B. Johnson, W. Chen, M. W. Wong, C. Gonzalez, and J. A. Pople, 
 Gaussian, Inc., Pittsburgh PA, 2003.
 
 **********************************************
 Gaussian 03:  x86-Linux-G03RevB.05 24-Oct-2003
                   9-Feb-2007 
 **********************************************
 %chk=test.chk
 %mem=600MB
 %nproc=1
 Will use up to    1 processors via shared memory.
 ------------------------------------
 # cbs-qb3 nosym optcyc=100 scf=tight
 ------------------------------------
 1/6=100,14=-1,18=20,26=3,38=1/1,3;
 2/9=110,15=1,17=6,18=5,40=1/2;
 3/5=4,6=6,7=700,11=2,16=1,25=1,30=1,74=-5/1,2,3;
 4//1;
 5/5=2,32=2,38=5/2;
 6/7=2,8=2,9=2,10=2,28=1/1;
 7/30=1/1,2,3,16;
 1/6=100,14=-1,18=20/3(1);
 99//99;
 2/9=110,15=1/2;
 3/5=4,6=6,7=700,11=2,16=1,25=1,30=1,74=-5/1,2,3;
 4/5=5,16=3/1;
 5/5=2,32=2,38=5/2;
 7/30=1/1,2,3,16;
 1/6=100,14=-1,18=20/3(-5);
 2/9=110,15=1/2;
 6/7=2,8=2,9=2,10=2,19=2,28=1/1;
 99/9=1/99;
 -------------
 vinyl radical
 -------------
 Symbolic Z-matrix:
 Charge =  0 Multiplicity = 2
 C
 H                    1    B1
 H                    1    B2       2    A1
 C                    1    B3       2    A2       3    D1       0
 H                    4    B4       1    A3       2    D2       0
       Variables:
  B1                    1.07                     
  B2                    1.07                     
  B3                    1.30204                  
  B4                    1.07                     
  A1                  116.14251                  
  A2                  121.92872                  
  A3                  138.2611                   
  D1                  180.                       
  D2                    0.                       
 

 GradGradGradGradGradGradGradGradGradGradGradGradGradGradGradGradGradGrad
 Berny optimization.
 Initialization pass.
                           ----------------------------
                           !    Initial Parameters    !
                           ! (Angstroms and Degrees)  !
 --------------------------                            --------------------------
 ! Name  Definition              Value          Derivative Info.                !
 --------------------------------------------------------------------------------
 ! R1    R(1,2)                  1.07           estimate D2E/DX2                !
 ! R2    R(1,3)                  1.07           estimate D2E/DX2                !
 ! R3    R(1,4)                  1.302          estimate D2E/DX2                !
 ! R4    R(4,5)                  1.07           estimate D2E/DX2                !
 ! A1    A(2,1,3)              116.1425         estimate D2E/DX2                !
 ! A2    A(2,1,4)              121.9287         estimate D2E/DX2                !
 ! A3    A(3,1,4)              121.9288         estimate D2E/DX2                !
 ! A4    A(1,4,5)              138.2611         estimate D2E/DX2                !
 ! D1    D(2,1,4,5)              0.0            estimate D2E/DX2                !
 ! D2    D(3,1,4,5)            180.0            estimate D2E/DX2                !
 --------------------------------------------------------------------------------
 Trust Radius=3.00D-01 FncErr=1.00D-07 GrdErr=1.00D-06
 Number of steps in this run= 100 maximum allowed number of steps= 100.
 GradGradGradGradGradGradGradGradGradGradGradGradGradGradGradGradGradGrad

                          Input orientation:                          
 ---------------------------------------------------------------------
 Center     Atomic     Atomic              Coordinates (Angstroms)
 Number     Number      Type              X           Y           Z
 ---------------------------------------------------------------------
    1          6             0        0.000000    0.000000    0.000000
    2          1             0        0.000000    0.000000    1.070000
    3          1             0        0.960540    0.000000   -0.471448
    4          6             0       -1.105050    0.000000   -0.688602
    5          1             0       -2.159404    0.000000   -0.506290
 ---------------------------------------------------------------------
                    Distance matrix (angstroms):
                    1          2          3          4          5
     1  C    0.000000
     2  H    1.070000   0.000000
     3  H    1.070000   1.816232   0.000000
     4  C    1.302040   2.076973   2.076973   0.000000
     5  H    2.217962   2.673522   3.120139   1.070000   0.000000
 Symmetry turned off by external request.
 Stoichiometry    C2H3(2)
 Framework group  CS[SG(C2H3)]
 Deg. of freedom     7
 Full point group                 CS      NOp   2
 Rotational constants (GHZ):    244.3636767     32.9794260     29.0577761
 Standard basis: CBSB7 (5D, 7F)
 Integral buffers will be    262144 words long.
 Raffenetti 2 integral format.
 Two-electron integral symmetry is turned off.
    54 basis functions,    88 primitive gaussians,    56 cartesian basis functions
     8 alpha electrons        7 beta electrons
       nuclear repulsion energy        28.6810354513 Hartrees.
 NAtoms=    5 NActive=    5 NUniq=    5 SFac= 1.00D+00 NAtFMM=   60 Big=F
 One-electron integrals computed using PRISM.
 NBasis=    54 RedAO= T  NBF=    54
 NBsUse=    54 1.00D-06 NBFU=    54
 Harris functional with IExCor=  402 diagonalized for initial guess.
 ExpMin= 1.03D-01 ExpMax= 4.56D+03 ExpMxC= 6.82D+02 IAcc=1 IRadAn=         1 AccDes= 1.00D-06
 HarFok:  IExCor= 402 AccDes= 1.00D-06 IRadAn=         1 IDoV=1
 ScaDFX=  1.000000  1.000000  1.000000  1.000000
 <S**2> of initial guess= 0.7500
 Requested convergence on RMS density matrix=1.00D-08 within 128 cycles.
 Requested convergence on MAX density matrix=1.00D-06.
 Requested convergence on             energy=1.00D-06.
 No special actions if energy rises.
 Keep R1 and R2 integrals in memory in canonical form, NReq=     3138208.
 Integral accuracy reduced to 1.0D-05 until final iterations.
 Initial convergence to 1.0D-05 achieved.  Increase integral accuracy.
 SCF Done:  E(UB+HF-LYP) =  -77.9263823691     A.U. after   16 cycles
             Convg  =    0.4721D-08             -V/T =  2.0034
             S**2   =   0.7596
 Annihilation of the first spin contaminant:
 S**2 before annihilation     0.7596,   after     0.7500

 **********************************************************************

            Population analysis using the SCF density.

 **********************************************************************

 Alpha  occ. eigenvalues --  -10.19420 -10.17226  -0.77398  -0.58389  -0.47162
 Alpha  occ. eigenvalues --   -0.43894  -0.29029  -0.23949
 Alpha virt. eigenvalues --    0.00275   0.06795   0.07871   0.12210   0.28783
 Alpha virt. eigenvalues --    0.30332   0.35167   0.38929   0.39899   0.45386
 Alpha virt. eigenvalues --    0.50248   0.57818   0.63733   0.65573   0.67447
 Alpha virt. eigenvalues --    0.82310   1.01271   1.07806   1.24458   1.24646
 Alpha virt. eigenvalues --    1.37065   1.46592   1.49724   1.52582   1.60532
 Alpha virt. eigenvalues --    1.77142   1.84557   1.86889   2.01553   2.02635
 Alpha virt. eigenvalues --    2.14702   2.19229   2.29178   2.52212   2.56041
 Alpha virt. eigenvalues --    2.58840   2.61686   2.63156   2.82051   2.82732
 Alpha virt. eigenvalues --    3.03074   3.42615   3.74561   3.96734  23.64142
 Alpha virt. eigenvalues --   24.37877
  Beta  occ. eigenvalues --  -10.17860 -10.17378  -0.75690  -0.56216  -0.45678
  Beta  occ. eigenvalues --   -0.42430  -0.28205
  Beta virt. eigenvalues --   -0.07703   0.01455   0.07083   0.08410   0.12578
  Beta virt. eigenvalues --    0.29304   0.31504   0.37279   0.39565   0.40225
  Beta virt. eigenvalues --    0.50800   0.50952   0.58661   0.64854   0.66959
  Beta virt. eigenvalues --    0.67837   0.83763   1.02004   1.08292   1.28544
  Beta virt. eigenvalues --    1.28973   1.39312   1.47487   1.51185   1.53763
  Beta virt. eigenvalues --    1.62013   1.77839   1.86192   1.88779   2.03495
  Beta virt. eigenvalues --    2.03834   2.15991   2.20304   2.30779   2.52935
  Beta virt. eigenvalues --    2.57324   2.59930   2.62544   2.65299   2.83232
  Beta virt. eigenvalues --    2.87089   3.05445   3.43569   3.74929   3.97635
  Beta virt. eigenvalues --   23.64963  24.38674
          Condensed to atoms (all electrons):
              1          2          3          4          5
     1  C    4.825545   0.404485   0.405053   0.646718  -0.045222
     2  H    0.404485   0.563541  -0.041903  -0.044923  -0.005960
     3  H    0.405053  -0.041903   0.541262  -0.039498   0.005510
     4  C    0.646718  -0.044923  -0.039498   5.198678   0.387725
     5  H   -0.045222  -0.005960   0.005510   0.387725   0.527005
 Mulliken atomic charges:
              1
     1  C   -0.236578
     2  H    0.124759
     3  H    0.129576
     4  C   -0.148699
     5  H    0.130943
 Sum of Mulliken charges=   0.00000
 Atomic charges with hydrogens summed into heavy atoms:
              1
     1  C    0.017757
     2  H    0.000000
     3  H    0.000000
     4  C   -0.017757
     5  H    0.000000
 Sum of Mulliken charges=   0.00000
          Atomic-Atomic Spin Densities.
              1          2          3          4          5
     1  C   -0.154567   0.019313   0.012163  -0.039780   0.000832
     2  H    0.019313   0.118072  -0.020611  -0.031166  -0.007140
     3  H    0.012163  -0.020611   0.067033  -0.016337   0.002329
     4  C   -0.039780  -0.031166  -0.016337   1.136409  -0.019238
     5  H    0.000832  -0.007140   0.002329  -0.019238   0.032322
 Mulliken atomic spin densities:
              1
     1  C   -0.162038
     2  H    0.078468
     3  H    0.044577
     4  C    1.029889
     5  H    0.009105
 Sum of Mulliken spin densities=   1.00000
 Electronic spatial extent (au):  <R**2>=    90.6314
 Charge=     0.0000 electrons
 Dipole moment (field-independent basis, Debye):
    X=    -0.0759    Y=     0.0000    Z=     0.6793  Tot=     0.6835
 Quadrupole moment (field-independent basis, Debye-Ang):
   XX=   -10.4528   YY=   -14.5781   ZZ=   -13.3868
   XY=     0.0000   XZ=    -0.3942   YZ=     0.0000
 Traceless Quadrupole moment (field-independent basis, Debye-Ang):
   XX=     2.3531   YY=    -1.7722   ZZ=    -0.5809
   XY=     0.0000   XZ=    -0.3942   YZ=     0.0000
 Octapole moment (field-independent basis, Debye-Ang**2):
  XXX=    15.1418  YYY=     0.0000  ZZZ=    13.9136  XYY=     7.6333
  XXY=     0.0000  XXZ=     2.7445  XZZ=     7.9895  YZZ=     0.0000
  YYZ=     4.2672  XYZ=     0.0000
 Hexadecapole moment (field-independent basis, Debye-Ang**3):
 XXXX=   -60.8187 YYYY=   -16.6847 ZZZZ=   -39.6780 XXXY=     0.0000
 XXXZ=   -12.2779 YYYX=     0.0000 YYYZ=     0.0000 ZZZX=   -16.3559
 ZZZY=     0.0000 XXYY=   -16.4280 XXZZ=   -19.9698 YYZZ=    -9.5182
 XXYZ=     0.0000 YYXZ=    -5.0931 ZZXY=     0.0000
 N-N= 2.868103545128D+01 E-N=-2.379338184136D+02  KE= 7.766090336537D+01
                          Isotropic Fermi Contact Couplings
        Atom                 a.u.       MegaHertz       Gauss      10(-4) cm-1
     1  C(13)             -0.01206     -13.55727      -4.83757      -4.52222
     2  H(1)               0.03619     161.74941      57.71621      53.95380
     3  H(1)               0.02355     105.27534      37.56486      35.11607
     4  C(13)              0.26564     298.63162     106.55918      99.61279
     5  H(1)               0.00962      42.98861      15.33940      14.33946
 --------------------------------------------------------
       Center         ----  Spin Dipole Couplings  ----
                      3XX-RR        3YY-RR        3ZZ-RR
 --------------------------------------------------------
     1   Atom        0.077425     -0.148164      0.070739
     2   Atom        0.004275     -0.010145      0.005870
     3   Atom        0.018561     -0.012290     -0.006271
     4   Atom       -0.541278     -0.425634      0.966912
     5   Atom        0.074687     -0.061811     -0.012876
 --------------------------------------------------------
                        XY            XZ            YZ
 --------------------------------------------------------
     1   Atom        0.000000      0.051839      0.000000
     2   Atom        0.000000      0.008227      0.000000
     3   Atom        0.000000      0.011503      0.000000
     4   Atom        0.000000     -0.270593      0.000000
     5   Atom        0.000000     -0.012800      0.000000
 --------------------------------------------------------


 ---------------------------------------------------------------------------------
              Anisotropic Spin Dipole Couplings in Principal Axis System
 ---------------------------------------------------------------------------------

       Atom             a.u.   MegaHertz   Gauss  10(-4) cm-1        Axes

              Baa    -0.1482   -19.882    -7.094    -6.632  0.0000  1.0000  0.0000
     1 C(13)  Bbb     0.0221     2.970     1.060     0.991 -0.6840  0.0000  0.7295
              Bcc     0.1260    16.912     6.035     5.641  0.7295  0.0000  0.6840
 
              Baa    -0.0101    -5.413    -1.932    -1.806  0.0000  1.0000  0.0000
     2 H(1)   Bbb    -0.0032    -1.704    -0.608    -0.568  0.7404  0.0000 -0.6721
              Bcc     0.0133     7.117     2.539     2.374  0.6721  0.0000  0.7404
 
              Baa    -0.0123    -6.558    -2.340    -2.187  0.0000  1.0000  0.0000
     3 H(1)   Bbb    -0.0108    -5.752    -2.052    -1.919 -0.3650  0.0000  0.9310
              Bcc     0.0231    12.309     4.392     4.106  0.9310  0.0000  0.3650
 
              Baa    -0.5884   -78.952   -28.172   -26.336  0.9852  0.0000  0.1714
     4 C(13)  Bbb    -0.4256   -57.116   -20.380   -19.052  0.0000  1.0000  0.0000
              Bcc     1.0140   136.068    48.552    45.387 -0.1714  0.0000  0.9852
 
              Baa    -0.0618   -32.979   -11.768   -11.001  0.0000  1.0000  0.0000
     5 H(1)   Bbb    -0.0147    -7.848    -2.800    -2.618  0.1417  0.0000  0.9899
              Bcc     0.0765    40.827    14.568    13.619  0.9899  0.0000 -0.1417
 

 ---------------------------------------------------------------------------------

 -------------------------------------------------------------------
 Center     Atomic                   Forces (Hartrees/Bohr)
 Number     Number              X              Y              Z
 -------------------------------------------------------------------
    1          6          -0.007531970    0.000000000   -0.008559031
    2          1           0.000024736    0.000000000    0.016001834
    3          1           0.011558558    0.000000000   -0.005391940
    4          6           0.003317353    0.000000000   -0.003056379
    5          1          -0.007368677    0.000000000    0.001005515
 -------------------------------------------------------------------
 Cartesian Forces:  Max     0.016001834 RMS     0.006451744

 GradGradGradGradGradGradGradGradGradGradGradGradGradGradGradGradGradGrad
 Berny optimization.
 Internal  Forces:  Max     0.016001633 RMS     0.007034246
 Search for a local minimum.
 Step number   1 out of a maximum of 100
 All quantities printed in internal units (Hartrees-Bohrs-Radians)
 Second derivative matrix not updated -- first step.
 The second derivative matrix:
                          R1        R2        R3        R4        A1
           R1           0.37230
           R2           0.00000   0.37230
           R3           0.00000   0.00000   0.66630
           R4           0.00000   0.00000   0.00000   0.37230
           A1           0.00000   0.00000   0.00000   0.00000   0.16000
           A2           0.00000   0.00000   0.00000   0.00000   0.00000
           A3           0.00000   0.00000   0.00000   0.00000   0.00000
           A4           0.00000   0.00000   0.00000   0.00000   0.00000
           D1           0.00000   0.00000   0.00000   0.00000   0.00000
           D2           0.00000   0.00000   0.00000   0.00000   0.00000
                          A2        A3        A4        D1        D2
           A2           0.16000
           A3           0.00000   0.16000
           A4           0.00000   0.00000   0.16000
           D1           0.00000   0.00000   0.00000   0.03385
           D2           0.00000   0.00000   0.00000   0.00000   0.03385
     Eigenvalues ---    0.03385   0.03385   0.16000   0.16000   0.16000
     Eigenvalues ---    0.37230   0.37230   0.37230   0.666301000.00000
 RFO step:  Lambda=-1.30186285D-03.
 Linear search not attempted -- first point.
 Iteration  1 RMS(Cart)=  0.01919665 RMS(Int)=  0.00001151
 Iteration  2 RMS(Cart)=  0.00001242 RMS(Int)=  0.00000000
 Iteration  3 RMS(Cart)=  0.00000000 RMS(Int)=  0.00000000
 Variable       Old X    -DE/DX   Delta X   Delta X   Delta X     New X
                                 (Linear)    (Quad)   (Total)
    R1        2.02201   0.01600   0.00000   0.04283   0.04283   2.06484
    R2        2.02201   0.01275   0.00000   0.03413   0.03413   2.05614
    R3        2.46050   0.00452   0.00000   0.00677   0.00677   2.46727
    R4        2.02201   0.00743   0.00000   0.01989   0.01989   2.04190
    A1        2.02707  -0.00019   0.00000  -0.00116  -0.00116   2.02591
    A2        2.12806  -0.00014   0.00000  -0.00084  -0.00084   2.12722
    A3        2.12806   0.00032   0.00000   0.00200   0.00200   2.13006
    A4        2.41311   0.00053   0.00000   0.00331   0.00331   2.41642
    D1        0.00000   0.00000   0.00000   0.00000   0.00000   0.00000
    D2        3.14159   0.00000   0.00000   0.00000   0.00000   3.14159
         Item               Value     Threshold  Converged?
 Maximum Force            0.016002     0.000450     NO 
 RMS     Force            0.007034     0.000300     NO 
 Maximum Displacement     0.037593     0.001800     NO 
 RMS     Displacement     0.019198     0.001200     NO 
 Predicted change in Energy=-6.531824D-04
 GradGradGradGradGradGradGradGradGradGradGradGradGradGradGradGradGradGrad

                          Input orientation:                          
 ---------------------------------------------------------------------
 Center     Atomic     Atomic              Coordinates (Angstroms)
 Number     Number      Type              X           Y           Z
 ---------------------------------------------------------------------
    1          6             0        0.000300    0.000000   -0.002772
    2          1             0        0.000671    0.000000    1.089893
    3          1             0        0.977446    0.000000   -0.481379
    4          6             0       -1.108607    0.000000   -0.691961
    5          1             0       -2.173724    0.000000   -0.510122
 ---------------------------------------------------------------------
                    Distance matrix (angstroms):
                    1          2          3          4          5
     1  C    0.000000
     2  H    1.092665   0.000000
     3  H    1.088062   1.850131   0.000000
     4  C    1.305625   2.098929   2.096655   0.000000
     5  H    2.232440   2.699638   3.151302   1.080528   0.000000
 Symmetry turned off by external request.
 Stoichiometry    C2H3(2)
 Framework group  CS[SG(C2H3)]
 Deg. of freedom     7
 Full point group                 CS      NOp   2
 Rotational constants (GHZ):    236.6445704     32.6475193     28.6895103
 Standard basis: CBSB7 (5D, 7F)
 Integral buffers will be    262144 words long.
 Raffenetti 2 integral format.
 Two-electron integral symmetry is turned off.
    54 basis functions,    88 primitive gaussians,    56 cartesian basis functions
     8 alpha electrons        7 beta electrons
       nuclear repulsion energy        28.4525842172 Hartrees.
 NAtoms=    5 NActive=    5 NUniq=    5 SFac= 1.00D+00 NAtFMM=   60 Big=F
 One-electron integrals computed using PRISM.
 NBasis=    54 RedAO= T  NBF=    54
 NBsUse=    54 1.00D-06 NBFU=    54
 Initial guess read from the read-write file:
 <S**2> of initial guess= 0.7597
 Harris functional with IExCor=  402 diagonalized for initial guess.
 ExpMin= 1.03D-01 ExpMax= 4.56D+03 ExpMxC= 6.82D+02 IAcc=1 IRadAn=         1 AccDes= 1.00D-06
 HarFok:  IExCor= 402 AccDes= 1.00D-06 IRadAn=         1 IDoV=1
 ScaDFX=  1.000000  1.000000  1.000000  1.000000
 Requested convergence on RMS density matrix=1.00D-08 within 128 cycles.
 Requested convergence on MAX density matrix=1.00D-06.
 Requested convergence on             energy=1.00D-06.
 No special actions if energy rises.
 Keep R1 and R2 integrals in memory in canonical form, NReq=     3138208.
 Integral accuracy reduced to 1.0D-05 until final iterations.
 Initial convergence to 1.0D-05 achieved.  Increase integral accuracy.
 SCF Done:  E(UB+HF-LYP) =  -77.9270295826     A.U. after   13 cycles
             Convg  =    0.5244D-08             -V/T =  2.0045
             S**2   =   0.7599
 Annihilation of the first spin contaminant:
 S**2 before annihilation     0.7599,   after     0.7500
 -------------------------------------------------------------------
 Center     Atomic                   Forces (Hartrees/Bohr)
 Number     Number              X              Y              Z
 -------------------------------------------------------------------
    1          6          -0.001488854   -0.000000001   -0.001496992
    2          1           0.000276721    0.000000000    0.000602081
    3          1           0.000163913    0.000000000    0.000267725
    4          6           0.000872682    0.000000000    0.000599198
    5          1           0.000175539    0.000000000    0.000027989
 -------------------------------------------------------------------
 Cartesian Forces:  Max     0.001496992 RMS     0.000640182

 GradGradGradGradGradGradGradGradGradGradGradGradGradGradGradGradGradGrad
 Berny optimization.
 Internal  Forces:  Max     0.001221521 RMS     0.000463178
 Search for a local minimum.
 Step number   2 out of a maximum of 100
 All quantities printed in internal units (Hartrees-Bohrs-Radians)
 Update second derivatives using D2CorX and points  1  2
 Trust test= 9.91D-01 RLast= 5.88D-02 DXMaxT set to 3.00D-01
 The second derivative matrix:
                          R1        R2        R3        R4        A1
           R1           0.36068
           R2          -0.00387   0.37367
           R3           0.01329   0.01260   0.67625
           R4          -0.00004   0.00263   0.00817   0.37493
           A1           0.00488   0.00397   0.00162   0.00234   0.16001
           A2          -0.00198  -0.00168  -0.00089  -0.00102  -0.00007
           A3          -0.00291  -0.00229  -0.00073  -0.00132   0.00006
           A4           0.00129   0.00126   0.00107   0.00083   0.00019
           D1           0.00000   0.00000   0.00000   0.00000   0.00000
           D2           0.00000   0.00000   0.00000   0.00000   0.00000
                          A2        A3        A4        D1        D2
           A2           0.16006
           A3           0.00001   0.15993
           A4          -0.00010  -0.00009   0.16011
           D1           0.00000   0.00000   0.00000   0.03385
           D2           0.00000   0.00000   0.00000   0.00000   0.03385
     Eigenvalues ---    0.03385   0.03385   0.15959   0.16000   0.16016
     Eigenvalues ---    0.35903   0.37230   0.37699   0.677551000.00000
 RFO step:  Lambda=-4.86731707D-06.
 Quartic linear search produced a step of  0.01281.
 Iteration  1 RMS(Cart)=  0.00089130 RMS(Int)=  0.00000097
 Iteration  2 RMS(Cart)=  0.00000104 RMS(Int)=  0.00000000
 Iteration  3 RMS(Cart)=  0.00000000 RMS(Int)=  0.00000000
 Variable       Old X    -DE/DX   Delta X   Delta X   Delta X     New X
                                 (Linear)    (Quad)   (Total)
    R1        2.06484   0.00060   0.00055   0.00128   0.00182   2.06666
    R2        2.05614   0.00003   0.00044  -0.00021   0.00023   2.05637
    R3        2.46727  -0.00122   0.00009  -0.00192  -0.00183   2.46544
    R4        2.04190  -0.00017   0.00025  -0.00063  -0.00037   2.04153
    A1        2.02591  -0.00040  -0.00001  -0.00255  -0.00257   2.02335
    A2        2.12722   0.00017  -0.00001   0.00107   0.00106   2.12827
    A3        2.13006   0.00024   0.00003   0.00148   0.00151   2.13157
    A4        2.41642  -0.00012   0.00004  -0.00077  -0.00073   2.41569
    D1        0.00000   0.00000   0.00000   0.00000   0.00000   0.00000
    D2        3.14159   0.00000   0.00000   0.00000   0.00000  -3.14159
         Item               Value     Threshold  Converged?
 Maximum Force            0.001222     0.000450     NO 
 RMS     Force            0.000463     0.000300     NO 
 Maximum Displacement     0.001552     0.001800     YES
 RMS     Displacement     0.000892     0.001200     YES
 Predicted change in Energy=-2.521441D-06
 GradGradGradGradGradGradGradGradGradGradGradGradGradGradGradGradGradGrad

                          Input orientation:                          
 ---------------------------------------------------------------------
 Center     Atomic     Atomic              Coordinates (Angstroms)
 Number     Number      Type              X           Y           Z
 ---------------------------------------------------------------------
    1          6             0       -0.000494    0.000000   -0.003593
    2          1             0        0.001010    0.000000    1.090037
    3          1             0        0.977493    0.000000   -0.480756
    4          6             0       -1.108564    0.000000   -0.692294
    5          1             0       -2.173359    0.000000   -0.509734
 ---------------------------------------------------------------------
                    Distance matrix (angstroms):
                    1          2          3          4          5
     1  C    0.000000
     2  H    1.093631   0.000000
     3  H    1.088184   1.849570   0.000000
     4  C    1.304657   2.099490   2.096756   0.000000
     5  H    2.231037   2.699472   3.150986   1.080332   0.000000
 Symmetry turned off by external request.
 Stoichiometry    C2H3(2)
 Framework group  C1[X(C2H3)]
 Deg. of freedom     9
 Full point group                 C1      NOp   1
 Rotational constants (GHZ):    236.6818653     32.6770710     28.7128774
 Standard basis: CBSB7 (5D, 7F)
 Integral buffers will be    262144 words long.
 Raffenetti 2 integral format.
 Two-electron integral symmetry is turned off.
    54 basis functions,    88 primitive gaussians,    56 cartesian basis functions
     8 alpha electrons        7 beta electrons
       nuclear repulsion energy        28.4615841564 Hartrees.
 NAtoms=    5 NActive=    5 NUniq=    5 SFac= 1.00D+00 NAtFMM=   60 Big=F
 One-electron integrals computed using PRISM.
 NBasis=    54 RedAO= T  NBF=    54
 NBsUse=    54 1.00D-06 NBFU=    54
 Initial guess read from the read-write file:
 <S**2> of initial guess= 0.7599
 Requested convergence on RMS density matrix=1.00D-08 within 128 cycles.
 Requested convergence on MAX density matrix=1.00D-06.
 Requested convergence on             energy=1.00D-06.
 No special actions if energy rises.
 Keep R1 and R2 integrals in memory in canonical form, NReq=     3138208.
 SCF Done:  E(UB+HF-LYP) =  -77.9270327034     A.U. after   10 cycles
             Convg  =    0.2273D-08             -V/T =  2.0045
             S**2   =   0.7599
 Annihilation of the first spin contaminant:
 S**2 before annihilation     0.7599,   after     0.7500
 -------------------------------------------------------------------
 Center     Atomic                   Forces (Hartrees/Bohr)
 Number     Number              X              Y              Z
 -------------------------------------------------------------------
    1          6          -0.000298473    0.000000001   -0.000315975
    2          1           0.000133519    0.000000000    0.000056742
    3          1           0.000065430   -0.000000001    0.000158441
    4          6           0.000067510    0.000000000    0.000111862
    5          1           0.000032014    0.000000000   -0.000011070
 -------------------------------------------------------------------
 Cartesian Forces:  Max     0.000315975 RMS     0.000131041

 GradGradGradGradGradGradGradGradGradGradGradGradGradGradGradGradGradGrad
 Berny optimization.
 Internal  Forces:  Max     0.000209137 RMS     0.000095858
 Search for a local minimum.
 Step number   3 out of a maximum of 100
 All quantities printed in internal units (Hartrees-Bohrs-Radians)
 Update second derivatives using D2CorX and points  1  2  3
 Trust test= 1.24D+00 RLast= 4.17D-03 DXMaxT set to 3.00D-01
 The second derivative matrix:
                          R1        R2        R3        R4        A1
           R1           0.36516
           R2          -0.00174   0.37425
           R3           0.00749   0.00943   0.68380
           R4           0.00122   0.00260   0.00582   0.37437
           A1           0.02758   0.00614  -0.04038  -0.00314   0.13786
           A2          -0.00848  -0.00220   0.01128   0.00070   0.00812
           A3          -0.01910  -0.00394   0.02910   0.00245   0.01402
           A4          -0.00286   0.00048   0.00828   0.00129  -0.00266
           D1           0.00000   0.00000   0.00000   0.00000   0.00000
           D2           0.00000   0.00000   0.00000   0.00000   0.00000
                          A2        A3        A4        D1        D2
           A2           0.15716
           A3          -0.00528   0.15126
           A4           0.00047   0.00220   0.16157
           D1           0.00000   0.00000   0.00000   0.03385
           D2           0.00000   0.00000   0.00000   0.00000   0.03385
     Eigenvalues ---    0.03385   0.03385   0.11602   0.16000   0.16169
     Eigenvalues ---    0.36975   0.37237   0.37661   0.689001000.00000
 RFO step:  Lambda=-3.29549303D-07.
 Quartic linear search produced a step of  0.30390.
 Iteration  1 RMS(Cart)=  0.00064958 RMS(Int)=  0.00000044
 Iteration  2 RMS(Cart)=  0.00000044 RMS(Int)=  0.00000000
 Variable       Old X    -DE/DX   Delta X   Delta X   Delta X     New X
                                 (Linear)    (Quad)   (Total)
    R1        2.06666   0.00006   0.00055  -0.00017   0.00038   2.06705
    R2        2.05637  -0.00001   0.00007  -0.00004   0.00003   2.05640
    R3        2.46544  -0.00014  -0.00056   0.00018  -0.00038   2.46506
    R4        2.04153  -0.00003  -0.00011   0.00000  -0.00011   2.04142
    A1        2.02335  -0.00021  -0.00078  -0.00109  -0.00187   2.02147
    A2        2.12827   0.00007   0.00032   0.00030   0.00062   2.12889
    A3        2.13157   0.00014   0.00046   0.00079   0.00125   2.13282
    A4        2.41569   0.00001  -0.00022   0.00026   0.00004   2.41573
    D1        0.00000   0.00000   0.00000   0.00000   0.00000   0.00000
    D2       -3.14159   0.00000   0.00000   0.00000   0.00000   3.14159
         Item               Value     Threshold  Converged?
 Maximum Force            0.000209     0.000450     YES
 RMS     Force            0.000096     0.000300     YES
 Maximum Displacement     0.001270     0.001800     YES
 RMS     Displacement     0.000650     0.001200     YES
 Predicted change in Energy=-3.444655D-07
 Optimization completed.
    -- Stationary point found.
                           ----------------------------
                           !   Optimized Parameters   !
                           ! (Angstroms and Degrees)  !
 --------------------------                            --------------------------
 ! Name  Definition              Value          Derivative Info.                !
 --------------------------------------------------------------------------------
 ! R1    R(1,2)                  1.0936         -DE/DX =    0.0001              !
 ! R2    R(1,3)                  1.0882         -DE/DX =    0.0                 !
 ! R3    R(1,4)                  1.3047         -DE/DX =   -0.0001              !
 ! R4    R(4,5)                  1.0803         -DE/DX =    0.0                 !
 ! A1    A(2,1,3)              115.9291         -DE/DX =   -0.0002              !
 ! A2    A(2,1,4)              121.941          -DE/DX =    0.0001              !
 ! A3    A(3,1,4)              122.1298         -DE/DX =    0.0001              !
 ! A4    A(1,4,5)              138.4089         -DE/DX =    0.0                 !
 ! D1    D(2,1,4,5)              0.0            -DE/DX =    0.0                 !
 ! D2    D(3,1,4,5)            180.0            -DE/DX =    0.0                 !
 --------------------------------------------------------------------------------
 GradGradGradGradGradGradGradGradGradGradGradGradGradGradGradGradGradGrad

                          Input orientation:                          
 ---------------------------------------------------------------------
 Center     Atomic     Atomic              Coordinates (Angstroms)
 Number     Number      Type              X           Y           Z
 ---------------------------------------------------------------------
    1          6             0       -0.000494    0.000000   -0.003593
    2          1             0        0.001010    0.000000    1.090037
    3          1             0        0.977493    0.000000   -0.480756
    4          6             0       -1.108564    0.000000   -0.692294
    5          1             0       -2.173359    0.000000   -0.509734
 ---------------------------------------------------------------------
                    Distance matrix (angstroms):
                    1          2          3          4          5
     1  C    0.000000
     2  H    1.093631   0.000000
     3  H    1.088184   1.849570   0.000000
     4  C    1.304657   2.099490   2.096756   0.000000
     5  H    2.231037   2.699472   3.150986   1.080332   0.000000
 Symmetry turned off by external request.
 Stoichiometry    C2H3(2)
 Framework group  C1[X(C2H3)]
 Deg. of freedom     9
 Full point group                 C1      NOp   1
 Rotational constants (GHZ):    236.6818653     32.6770710     28.7128774

 **********************************************************************

            Population analysis using the SCF density.

 **********************************************************************

 Alpha  occ. eigenvalues --  -10.19593 -10.17692  -0.77179  -0.58004  -0.46789
 Alpha  occ. eigenvalues --   -0.43626  -0.28995  -0.23953
 Alpha virt. eigenvalues --    0.00229   0.06576   0.07577   0.12056   0.28579
 Alpha virt. eigenvalues --    0.29964   0.35003   0.38367   0.39900   0.45109
 Alpha virt. eigenvalues --    0.50174   0.56782   0.63591   0.65235   0.67184
 Alpha virt. eigenvalues --    0.82151   1.01128   1.07586   1.24140   1.24465
 Alpha virt. eigenvalues --    1.36556   1.45975   1.48696   1.52135   1.59696
 Alpha virt. eigenvalues --    1.75792   1.84018   1.86392   2.00418   2.01235
 Alpha virt. eigenvalues --    2.14912   2.18119   2.29538   2.50208   2.53670
 Alpha virt. eigenvalues --    2.57321   2.61200   2.61429   2.80999   2.82466
 Alpha virt. eigenvalues --    3.00928   3.41381   3.70444   3.94091  23.60897
 Alpha virt. eigenvalues --   24.35584
  Beta  occ. eigenvalues --  -10.18044 -10.17843  -0.75452  -0.55859  -0.45329
  Beta  occ. eigenvalues --   -0.42108  -0.28177
  Beta virt. eigenvalues --   -0.07807   0.01400   0.06861   0.08159   0.12448
  Beta virt. eigenvalues --    0.29146   0.31109   0.37027   0.39056   0.40220
  Beta virt. eigenvalues --    0.50561   0.50877   0.57617   0.64852   0.66345
  Beta virt. eigenvalues --    0.67686   0.83586   1.01851   1.08073   1.28184
  Beta virt. eigenvalues --    1.28778   1.38787   1.46920   1.50110   1.53387
  Beta virt. eigenvalues --    1.61208   1.76503   1.85647   1.88275   2.02101
  Beta virt. eigenvalues --    2.02729   2.16232   2.19199   2.31112   2.50964
  Beta virt. eigenvalues --    2.54960   2.58421   2.62268   2.63173   2.82976
  Beta virt. eigenvalues --    2.86185   3.03395   3.42316   3.70769   3.94985
  Beta virt. eigenvalues --   23.61690  24.36399
          Condensed to atoms (all electrons):
              1          2          3          4          5
     1  C    4.836309   0.399007   0.401446   0.647332  -0.044602
     2  H    0.399007   0.568666  -0.041774  -0.044617  -0.005927
     3  H    0.401446  -0.041774   0.543379  -0.039041   0.005378
     4  C    0.647332  -0.044617  -0.039041   5.198744   0.385404
     5  H   -0.044602  -0.005927   0.005378   0.385404   0.527689
 Mulliken atomic charges:
              1
     1  C   -0.239492
     2  H    0.124644
     3  H    0.130612
     4  C   -0.147823
     5  H    0.132059
 Sum of Mulliken charges=   0.00000
 Atomic charges with hydrogens summed into heavy atoms:
              1
     1  C    0.015764
     2  H    0.000000
     3  H    0.000000
     4  C   -0.015764
     5  H    0.000000
 Sum of Mulliken charges=   0.00000
          Atomic-Atomic Spin Densities.
              1          2          3          4          5
     1  C   -0.159009   0.018708   0.011993  -0.038231   0.000900
     2  H    0.018708   0.123901  -0.020663  -0.031427  -0.007160
     3  H    0.011993  -0.020663   0.068435  -0.016284   0.002294
     4  C   -0.038231  -0.031427  -0.016284   1.132676  -0.019711
     5  H    0.000900  -0.007160   0.002294  -0.019711   0.033159
 Mulliken atomic spin densities:
              1
     1  C   -0.165640
     2  H    0.083359
     3  H    0.045775
     4  C    1.027024
     5  H    0.009482
 Sum of Mulliken spin densities=   1.00000
 Electronic spatial extent (au):  <R**2>=    91.4995
 Charge=     0.0000 electrons
 Dipole moment (field-independent basis, Debye):
    X=    -0.0822    Y=     0.0000    Z=     0.6729  Tot=     0.6779
 Quadrupole moment (field-independent basis, Debye-Ang):
   XX=   -10.4335   YY=   -14.6472   ZZ=   -13.4177
   XY=     0.0000   XZ=    -0.3933   YZ=     0.0000
 Traceless Quadrupole moment (field-independent basis, Debye-Ang):
   XX=     2.3993   YY=    -1.8144   ZZ=    -0.5849
   XY=     0.0000   XZ=    -0.3933   YZ=     0.0000
 Octapole moment (field-independent basis, Debye-Ang**2):
  XXX=    15.0743  YYY=     0.0000  ZZZ=    14.0350  XYY=     7.6636
  XXY=     0.0000  XXZ=     2.7044  XZZ=     8.0192  YZZ=     0.0000
  YYZ=     4.2943  XYZ=     0.0000
 Hexadecapole moment (field-independent basis, Debye-Ang**3):
 XXXX=   -61.1727 YYYY=   -16.7966 ZZZZ=   -40.2498 XXXY=     0.0000
 XXXZ=   -12.3139 YYYX=     0.0000 YYYZ=     0.0000 ZZZX=   -16.4741
 ZZZY=     0.0000 XXYY=   -16.6352 XXZZ=   -20.2250 YYZZ=    -9.6591
 XXYZ=     0.0000 YYXZ=    -5.1368 ZZXY=     0.0000
 N-N= 2.846158415643D+01 E-N=-2.374400601992D+02  KE= 7.758001299118D+01
                          Isotropic Fermi Contact Couplings
        Atom                 a.u.       MegaHertz       Gauss      10(-4) cm-1
     1  C(13)             -0.01301     -14.62279      -5.21778      -4.87764
     2  H(1)               0.03725     166.50896      59.41453      55.54141
     3  H(1)               0.02359     105.44185      37.62427      35.17162
     4  C(13)              0.26678     299.91673     107.01774     100.04145
     5  H(1)               0.00963      43.02800      15.35346      14.35260
 --------------------------------------------------------
       Center         ----  Spin Dipole Couplings  ----
                      3XX-RR        3YY-RR        3ZZ-RR
 --------------------------------------------------------
     1   Atom        0.080426     -0.146912      0.066486
     2   Atom        0.004294     -0.009390      0.005097
     3   Atom        0.017694     -0.011739     -0.005955
     4   Atom       -0.540870     -0.422491      0.963361
     5   Atom        0.073519     -0.060364     -0.013154
 --------------------------------------------------------
                        XY            XZ            YZ
 --------------------------------------------------------
     1   Atom        0.000000      0.052460      0.000000
     2   Atom        0.000000      0.007893      0.000000
     3   Atom        0.000000      0.011191      0.000000
     4   Atom        0.000000     -0.267873      0.000000
     5   Atom        0.000000     -0.012569      0.000000
 --------------------------------------------------------


 ---------------------------------------------------------------------------------
              Anisotropic Spin Dipole Couplings in Principal Axis System
 ---------------------------------------------------------------------------------

       Atom             a.u.   MegaHertz   Gauss  10(-4) cm-1        Axes

              Baa    -0.1469   -19.714    -7.035    -6.576  0.0000  1.0000  0.0000
     1 C(13)  Bbb     0.0205     2.756     0.983     0.919 -0.6589  0.0000  0.7522
              Bcc     0.1264    16.959     6.051     5.657  0.7522  0.0000  0.6589
 
              Baa    -0.0094    -5.010    -1.788    -1.671  0.0000  1.0000  0.0000
     2 H(1)   Bbb    -0.0032    -1.711    -0.611    -0.571  0.7249  0.0000 -0.6889
              Bcc     0.0126     6.722     2.398     2.242  0.6889  0.0000  0.7249
 
              Baa    -0.0117    -6.263    -2.235    -2.089  0.0000  1.0000  0.0000
     3 H(1)   Bbb    -0.0104    -5.555    -1.982    -1.853 -0.3699  0.0000  0.9291
              Bcc     0.0221    11.818     4.217     3.942  0.9291  0.0000  0.3699
 
              Baa    -0.5871   -78.790   -28.114   -26.281  0.9854  0.0000  0.1702
     4 C(13)  Bbb    -0.4225   -56.694   -20.230   -18.911  0.0000  1.0000  0.0000
              Bcc     1.0096   135.484    48.344    45.193 -0.1702  0.0000  0.9854
 
              Baa    -0.0604   -32.208   -11.492   -10.743  0.0000  1.0000  0.0000
     5 H(1)   Bbb    -0.0149    -7.971    -2.844    -2.659  0.1407  0.0000  0.9901
              Bcc     0.0753    40.179    14.337    13.402  0.9901  0.0000 -0.1407
 

 ---------------------------------------------------------------------------------

 Final structure in terms of initial Z-matrix:
 C
 H,1,B1
 H,1,B2,2,A1
 C,1,B3,2,A2,3,D1,0
 H,4,B4,1,A3,2,D2,0
      Variables:
 B1=1.09363054
 B2=1.08818354
 B3=1.30465713
 B4=1.08033162
 A1=115.92914885
 A2=121.94102233
 A3=138.40891988
 D1=180.
 D2=0.
 1\1\GINC-OSCARNODE08\FOpt\UB3LYP\CBSB7\C2H3(2)\CFGOLD\09-Feb-2007\0\\#
  CBS-QB3 NOSYM OPTCYC=100 SCF=TIGHT\\vinyl radical\\0,2\C,-0.000493586
 6,-0.0000000056,-0.0035928209\H,0.0010098577,0.0000000014,1.0900366904
 \H,0.9774933918,0.0000000037,-0.4807561925\C,-1.108564476,-0.000000002
 4,-0.6922938655\H,-2.1733593948,0.0000000029,-0.5097337693\\Version=x8
 6-Linux-G03RevB.05\HF=-77.9270327\S2=0.759895\S2-1=0.\S2A=0.750042\RMS
 D=2.273e-09\RMSF=1.310e-04\Dipole=-0.0323308,0.,0.2647215\PG=C01 [X(C2
 H3)]\\@


 A SOLDIER'S LIFE IS A LIFE OF HONOR, BUT A DOG WOULD NOT LEAD IT.
 -- PRINCE RUPERT, FOUNDER OF THE HUDSON'S BAY COMPANY
 Job cpu time:  0 days  0 hours  1 minutes 46.2 seconds.
 File lengths (MBytes):  RWF=     16 Int=      0 D2E=      0 Chk=     11 Scr=      1
 Normal termination of Gaussian 03 at Fri Feb  9 01:15:59 2007.
 Link1:  Proceeding to internal job step number  2.
 -------------------------------------------------------
 #N Geom=AllCheck Guess=Read SCRF=Check B3LYP/CBSB7 Freq
 -------------------------------------------------------
 1/6=100,10=4,29=7,30=1,38=1,40=1,46=1/1,3;
 2/15=1,40=1/2;
 3/5=4,6=6,7=700,11=2,16=1,25=1,30=1,70=2,71=2,74=-5/1,2,3;
 4/5=1/1;
 5/5=2,32=2,38=6/2;
 8/6=4,10=90,11=11/1;
 11/6=1,8=1,9=11,15=111,16=1,31=1/1,2,10;
 10/6=1,31=1/2;
 6/7=2,8=2,9=2,10=2,18=1,28=1/1;
 7/8=1,10=1,25=1,30=1/1,2,3,16;
 1/6=100,10=4,30=1,46=1/3;
 99//99;
 -------------
 vinyl radical
 -------------
 Redundant internal coordinates taken from checkpoint file:
 test.chk
 Charge =  0 Multiplicity = 2
 C,0,-0.0004935866,-0.0000000056,-0.0035928209
 H,0,0.0010098577,0.0000000014,1.0900366904
 H,0,0.9774933918,0.0000000037,-0.4807561925
 C,0,-1.108564476,-0.0000000024,-0.6922938655
 H,0,-2.1733593948,0.0000000029,-0.5097337693
 Recover connectivity data from disk.

 GradGradGradGradGradGradGradGradGradGradGradGradGradGradGradGradGradGrad
 Berny optimization.
 Initialization pass.
                           ----------------------------
                           !    Initial Parameters    !
                           ! (Angstroms and Degrees)  !
 --------------------------                            --------------------------
 ! Name  Definition              Value          Derivative Info.                !
 --------------------------------------------------------------------------------
 ! R1    R(1,2)                  1.0936         calculate D2E/DX2 analytically  !
 ! R2    R(1,3)                  1.0882         calculate D2E/DX2 analytically  !
 ! R3    R(1,4)                  1.3047         calculate D2E/DX2 analytically  !
 ! R4    R(4,5)                  1.0803         calculate D2E/DX2 analytically  !
 ! A1    A(2,1,3)              115.9291         calculate D2E/DX2 analytically  !
 ! A2    A(2,1,4)              121.941          calculate D2E/DX2 analytically  !
 ! A3    A(3,1,4)              122.1298         calculate D2E/DX2 analytically  !
 ! A4    A(1,4,5)              138.4089         calculate D2E/DX2 analytically  !
 ! D1    D(2,1,4,5)              0.0            calculate D2E/DX2 analytically  !
 ! D2    D(3,1,4,5)           -180.0            calculate D2E/DX2 analytically  !
 --------------------------------------------------------------------------------
 Trust Radius=3.00D-01 FncErr=1.00D-07 GrdErr=1.00D-07
 Number of steps in this run=   2 maximum allowed number of steps=   2.
 GradGradGradGradGradGradGradGradGradGradGradGradGradGradGradGradGradGrad

                          Input orientation:                          
 ---------------------------------------------------------------------
 Center     Atomic     Atomic              Coordinates (Angstroms)
 Number     Number      Type              X           Y           Z
 ---------------------------------------------------------------------
    1          6             0       -0.000494    0.000000   -0.003593
    2          1             0        0.001010    0.000000    1.090037
    3          1             0        0.977493    0.000000   -0.480756
    4          6             0       -1.108564    0.000000   -0.692294
    5          1             0       -2.173359    0.000000   -0.509734
 ---------------------------------------------------------------------
                    Distance matrix (angstroms):
                    1          2          3          4          5
     1  C    0.000000
     2  H    1.093631   0.000000
     3  H    1.088184   1.849570   0.000000
     4  C    1.304657   2.099490   2.096756   0.000000
     5  H    2.231037   2.699472   3.150986   1.080332   0.000000
 Symmetry turned off by external request.
 Stoichiometry    C2H3(2)
 Framework group  C1[X(C2H3)]
 Deg. of freedom     9
 Full point group                 C1      NOp   1
 Rotational constants (GHZ):    236.6818653     32.6770710     28.7128774
 Standard basis: CBSB7 (5D, 7F)
 Integral buffers will be    262144 words long.
 Raffenetti 2 integral format.
 Two-electron integral symmetry is turned off.
    54 basis functions,    88 primitive gaussians,    56 cartesian basis functions
     8 alpha electrons        7 beta electrons
       nuclear repulsion energy        28.4615841564 Hartrees.
 NAtoms=    5 NActive=    5 NUniq=    5 SFac= 1.00D+00 NAtFMM=   60 Big=F
 One-electron integrals computed using PRISM.
 NBasis=    54 RedAO= T  NBF=    54
 NBsUse=    54 1.00D-06 NBFU=    54
 Initial guess read from the checkpoint file:
 test.chk
 <S**2> of initial guess= 0.7599
 Requested convergence on RMS density matrix=1.00D-08 within 128 cycles.
 Requested convergence on MAX density matrix=1.00D-06.
 Requested convergence on             energy=1.00D-06.
 No special actions if energy rises.
 Keep R1 and R2 integrals in memory in canonical form, NReq=     3138208.
 SCF Done:  E(UB+HF-LYP) =  -77.9270327034     A.U. after    1 cycles
             Convg  =    0.2550D-09             -V/T =  2.0045
             S**2   =   0.7599
 Annihilation of the first spin contaminant:
 S**2 before annihilation     0.7599,   after     0.7500
 Range of M.O.s used for correlation:     1    54
 NBasis=    54 NAE=     8 NBE=     7 NFC=     0 NFV=     0
 NROrb=     54 NOA=     8 NOB=     7 NVA=    46 NVB=    47
 Symmetrizing basis deriv contribution to polar:
 IMax=3 JMax=2 DiffMx= 0.00D+00
 G2DrvN: will do    6 centers at a time, making    1 passes doing MaxLOS=2.
 FoFDir/FoFCou used for L=0 through L=2.
          Differentiating once with respect to electric field.
                with respect to dipole field.
          Differentiating once with respect to nuclear coordinates.
          Store integrals in memory, NReq=     2979492.
          There are  18 degrees of freedom in the 1st order CPHF.
    15 vectors were produced by pass  0.
 AX will form  15 AO Fock derivatives at one time.
    15 vectors were produced by pass  1.
    15 vectors were produced by pass  2.
    15 vectors were produced by pass  3.
    15 vectors were produced by pass  4.
    15 vectors were produced by pass  5.
     9 vectors were produced by pass  6.
     4 vectors were produced by pass  7.
     1 vectors were produced by pass  8.
 Inv2:  IOpt= 1 Iter= 1 AM= 1.55D-15 Conv= 1.00D-12.
 Inverted reduced A of dimension  104 with in-core refinement.
 Isotropic polarizability for W=    0.000000       20.69 Bohr**3.
 End of Minotr Frequency-dependent properties file   721 does not exist.

 **********************************************************************

            Population analysis using the SCF density.

 **********************************************************************

 Alpha  occ. eigenvalues --  -10.19593 -10.17692  -0.77179  -0.58004  -0.46789
 Alpha  occ. eigenvalues --   -0.43626  -0.28995  -0.23953
 Alpha virt. eigenvalues --    0.00229   0.06576   0.07577   0.12056   0.28579
 Alpha virt. eigenvalues --    0.29964   0.35003   0.38367   0.39900   0.45109
 Alpha virt. eigenvalues --    0.50174   0.56782   0.63591   0.65235   0.67184
 Alpha virt. eigenvalues --    0.82151   1.01128   1.07586   1.24140   1.24465
 Alpha virt. eigenvalues --    1.36556   1.45975   1.48696   1.52135   1.59696
 Alpha virt. eigenvalues --    1.75792   1.84018   1.86392   2.00418   2.01235
 Alpha virt. eigenvalues --    2.14912   2.18119   2.29538   2.50208   2.53670
 Alpha virt. eigenvalues --    2.57321   2.61200   2.61429   2.80999   2.82466
 Alpha virt. eigenvalues --    3.00928   3.41381   3.70444   3.94091  23.60897
 Alpha virt. eigenvalues --   24.35584
  Beta  occ. eigenvalues --  -10.18044 -10.17843  -0.75452  -0.55859  -0.45329
  Beta  occ. eigenvalues --   -0.42108  -0.28177
  Beta virt. eigenvalues --   -0.07807   0.01400   0.06861   0.08159   0.12448
  Beta virt. eigenvalues --    0.29146   0.31109   0.37027   0.39056   0.40220
  Beta virt. eigenvalues --    0.50561   0.50877   0.57617   0.64852   0.66345
  Beta virt. eigenvalues --    0.67686   0.83586   1.01851   1.08073   1.28184
  Beta virt. eigenvalues --    1.28778   1.38787   1.46920   1.50110   1.53387
  Beta virt. eigenvalues --    1.61208   1.76503   1.85647   1.88275   2.02101
  Beta virt. eigenvalues --    2.02729   2.16232   2.19199   2.31112   2.50964
  Beta virt. eigenvalues --    2.54960   2.58421   2.62268   2.63173   2.82976
  Beta virt. eigenvalues --    2.86185   3.03395   3.42316   3.70769   3.94985
  Beta virt. eigenvalues --   23.61690  24.36399
          Condensed to atoms (all electrons):
              1          2          3          4          5
     1  C    4.836309   0.399007   0.401446   0.647332  -0.044602
     2  H    0.399007   0.568666  -0.041774  -0.044617  -0.005927
     3  H    0.401446  -0.041774   0.543379  -0.039041   0.005378
     4  C    0.647332  -0.044617  -0.039041   5.198744   0.385404
     5  H   -0.044602  -0.005927   0.005378   0.385404   0.527689
 Mulliken atomic charges:
              1
     1  C   -0.239492
     2  H    0.124645
     3  H    0.130612
     4  C   -0.147823
     5  H    0.132059
 Sum of Mulliken charges=   0.00000
 Atomic charges with hydrogens summed into heavy atoms:
              1
     1  C    0.015764
     2  H    0.000000
     3  H    0.000000
     4  C   -0.015764
     5  H    0.000000
 Sum of Mulliken charges=   0.00000
          Atomic-Atomic Spin Densities.
              1          2          3          4          5
     1  C   -0.159009   0.018708   0.011993  -0.038231   0.000900
     2  H    0.018708   0.123901  -0.020663  -0.031427  -0.007160
     3  H    0.011993  -0.020663   0.068435  -0.016284   0.002294
     4  C   -0.038231  -0.031427  -0.016284   1.132676  -0.019711
     5  H    0.000900  -0.007160   0.002294  -0.019711   0.033159
 Mulliken atomic spin densities:
              1
     1  C   -0.165640
     2  H    0.083359
     3  H    0.045775
     4  C    1.027024
     5  H    0.009482
 Sum of Mulliken spin densities=   1.00000
 APT atomic charges:
              1
     1  C   -0.092850
     2  H    0.043889
     3  H    0.060822
     4  C   -0.132364
     5  H    0.120503
 Sum of APT charges=   0.00000
 APT Atomic charges with hydrogens summed into heavy atoms:
              1
     1  C    0.011861
     2  H    0.000000
     3  H    0.000000
     4  C   -0.011861
     5  H    0.000000
 Sum of APT charges=   0.00000
 Electronic spatial extent (au):  <R**2>=    91.4995
 Charge=     0.0000 electrons
 Dipole moment (field-independent basis, Debye):
    X=    -0.0822    Y=     0.0000    Z=     0.6729  Tot=     0.6779
 Quadrupole moment (field-independent basis, Debye-Ang):
   XX=   -10.4335   YY=   -14.6472   ZZ=   -13.4177
   XY=     0.0000   XZ=    -0.3933   YZ=     0.0000
 Traceless Quadrupole moment (field-independent basis, Debye-Ang):
   XX=     2.3993   YY=    -1.8144   ZZ=    -0.5849
   XY=     0.0000   XZ=    -0.3933   YZ=     0.0000
 Octapole moment (field-independent basis, Debye-Ang**2):
  XXX=    15.0743  YYY=     0.0000  ZZZ=    14.0350  XYY=     7.6636
  XXY=     0.0000  XXZ=     2.7044  XZZ=     8.0192  YZZ=     0.0000
  YYZ=     4.2943  XYZ=     0.0000
 Hexadecapole moment (field-independent basis, Debye-Ang**3):
 XXXX=   -61.1727 YYYY=   -16.7966 ZZZZ=   -40.2498 XXXY=     0.0000
 XXXZ=   -12.3139 YYYX=     0.0000 YYYZ=     0.0000 ZZZX=   -16.4741
 ZZZY=     0.0000 XXYY=   -16.6352 XXZZ=   -20.2250 YYZZ=    -9.6591
 XXYZ=     0.0000 YYXZ=    -5.1368 ZZXY=     0.0000
 N-N= 2.846158415643D+01 E-N=-2.374400602073D+02  KE= 7.758001299799D+01
  Exact polarizability:  29.237   0.000  11.992   5.696   0.000  20.831
 Approx polarizability:  42.698   0.000  15.435  11.804   0.000  29.102
                          Isotropic Fermi Contact Couplings
        Atom                 a.u.       MegaHertz       Gauss      10(-4) cm-1
     1  C(13)             -0.01301     -14.62278      -5.21777      -4.87763
     2  H(1)               0.03725     166.50896      59.41453      55.54141
     3  H(1)               0.02359     105.44185      37.62427      35.17162
     4  C(13)              0.26678     299.91673     107.01774     100.04145
     5  H(1)               0.00963      43.02799      15.35346      14.35259
 --------------------------------------------------------
       Center         ----  Spin Dipole Couplings  ----
                      3XX-RR        3YY-RR        3ZZ-RR
 --------------------------------------------------------
     1   Atom        0.080426     -0.146912      0.066486
     2   Atom        0.004294     -0.009390      0.005097
     3   Atom        0.017694     -0.011739     -0.005955
     4   Atom       -0.540870     -0.422491      0.963361
     5   Atom        0.073519     -0.060364     -0.013154
 --------------------------------------------------------
                        XY            XZ            YZ
 --------------------------------------------------------
     1   Atom        0.000000      0.052460      0.000000
     2   Atom        0.000000      0.007893      0.000000
     3   Atom        0.000000      0.011191      0.000000
     4   Atom        0.000000     -0.267873      0.000000
     5   Atom        0.000000     -0.012569      0.000000
 --------------------------------------------------------


 ---------------------------------------------------------------------------------
              Anisotropic Spin Dipole Couplings in Principal Axis System
 ---------------------------------------------------------------------------------

       Atom             a.u.   MegaHertz   Gauss  10(-4) cm-1        Axes

              Baa    -0.1469   -19.714    -7.035    -6.576  0.0000  1.0000  0.0000
     1 C(13)  Bbb     0.0205     2.756     0.983     0.919 -0.6589  0.0000  0.7522
              Bcc     0.1264    16.959     6.051     5.657  0.7522  0.0000  0.6589
 
              Baa    -0.0094    -5.010    -1.788    -1.671  0.0000  1.0000  0.0000
     2 H(1)   Bbb    -0.0032    -1.711    -0.611    -0.571  0.7249  0.0000 -0.6889
              Bcc     0.0126     6.722     2.398     2.242  0.6889  0.0000  0.7249
 
              Baa    -0.0117    -6.263    -2.235    -2.089  0.0000  1.0000  0.0000
     3 H(1)   Bbb    -0.0104    -5.555    -1.982    -1.853 -0.3699  0.0000  0.9291
              Bcc     0.0221    11.818     4.217     3.942  0.9291  0.0000  0.3699
 
              Baa    -0.5871   -78.790   -28.114   -26.281  0.9854  0.0000  0.1702
     4 C(13)  Bbb    -0.4225   -56.694   -20.230   -18.911  0.0000  1.0000  0.0000
              Bcc     1.0096   135.484    48.344    45.193 -0.1702  0.0000  0.9854
 
              Baa    -0.0604   -32.208   -11.492   -10.743  0.0000  1.0000  0.0000
     5 H(1)   Bbb    -0.0149    -7.971    -2.844    -2.659  0.1407  0.0000  0.9901
              Bcc     0.0753    40.179    14.337    13.402  0.9901  0.0000 -0.1407
 

 ---------------------------------------------------------------------------------

 Full mass-weighted force constant matrix:
 Low frequencies ---   -2.2147   -0.0008    0.0004    0.0008   11.9569   36.1042
 Low frequencies ---  712.3139  819.3470  921.3714
 Diagonal vibrational polarizability:
        0.5254199       3.2056054       1.1991344
 Harmonic frequencies (cm**-1), IR intensities (KM/Mole), Raman scattering
 activities (A**4/AMU), depolarization ratios for plane and unpolarized
 incident light, reduced masses (AMU), force constants (mDyne/A),
 and normal coordinates:
                     1                      2                      3
                     A                      A                      A
 Frequencies --   712.3139               819.3467               921.3709
 Red. masses --     1.0565                 1.2510                 1.2344
 Frc consts  --     0.3158                 0.4948                 0.6174
 IR Inten    --    24.6912                18.1986                78.1091
 Atom AN      X      Y      Z        X      Y      Z        X      Y      Z
   1   6     0.01   0.00  -0.04     0.00  -0.08   0.00     0.00   0.14   0.00
   2   1    -0.45   0.00  -0.03     0.00   0.47   0.00     0.00  -0.54   0.00
   3   1     0.17   0.00   0.33     0.00  -0.19   0.00     0.00  -0.77   0.00
   4   6     0.01   0.00  -0.05     0.00   0.13   0.00     0.00  -0.01   0.00
   5   1     0.13   0.00   0.79     0.00  -0.85   0.00     0.00  -0.30   0.00
                     4                      5                      6
                     A                      A                      A
 Frequencies --  1046.5868              1390.8281              1649.7281
 Red. masses --     1.5049                 1.1039                 5.4335
 Frc consts  --     0.9712                 1.2582                 8.7128
 IR Inten    --     9.6079                 8.9093                 1.9543
 Atom AN      X      Y      Z        X      Y      Z        X      Y      Z
   1   6    -0.09   0.00   0.12     0.00   0.00   0.00     0.41   0.00   0.25
   2   1     0.54   0.00   0.10     0.69   0.00   0.02    -0.35   0.00   0.26
   3   1    -0.36   0.00  -0.46     0.33   0.00   0.63     0.10   0.00  -0.43
   4   6     0.06   0.00  -0.14    -0.08   0.00  -0.05    -0.35   0.00  -0.23
   5   1     0.15   0.00   0.53    -0.08   0.00   0.03    -0.46   0.00  -0.01
                     7                      8                      9
                     A                      A                      A
 Frequencies --  3039.2866              3134.5802              3234.7380
 Red. masses --     1.0620                 1.1019                 1.1057
 Frc consts  --     5.7797                 6.3793                 6.8166
 IR Inten    --     6.1187                 5.7957                 0.7579
 Atom AN      X      Y      Z        X      Y      Z        X      Y      Z
   1   6    -0.03   0.00  -0.06    -0.07   0.00   0.06    -0.01   0.00  -0.01
   2   1    -0.01   0.00   0.93    -0.02   0.00  -0.33     0.00   0.00   0.06
   3   1     0.30   0.00  -0.17     0.85   0.00  -0.40     0.01   0.00   0.00
   4   6     0.00   0.00   0.00     0.00   0.00   0.00     0.09   0.00   0.00
   5   1     0.07   0.00   0.00    -0.01   0.00   0.01    -0.98   0.00   0.14

 -------------------
 - Thermochemistry -
 -------------------
 Temperature   298.150 Kelvin.  Pressure   1.00000 Atm.
 Atom  1 has atomic number  6 and mass  12.00000
 Atom  2 has atomic number  1 and mass   1.00783
 Atom  3 has atomic number  1 and mass   1.00783
 Atom  4 has atomic number  6 and mass  12.00000
 Atom  5 has atomic number  1 and mass   1.00783
 Molecular mass:    27.02348 amu.
 Principal axes and moments of inertia in atomic units:
                           1         2         3
     EIGENVALUES --     7.62518  55.22959  62.85477
           X            0.88923  -0.45745   0.00000
           Y            0.00000   0.00000   1.00000
           Z            0.45745   0.88923   0.00000
 This molecule is an asymmetric top.
 Rotational symmetry number  1.
 Rotational temperatures (Kelvin)     11.35892     1.56825     1.37800
 Rotational constants (GHZ):         236.68187    32.67707    28.71288
 Zero-point vibrational energy      95394.9 (Joules/Mol)
                                   22.79992 (Kcal/Mol)
 Vibrational temperatures:   1024.86  1178.86  1325.65  1505.80  2001.09
          (Kelvin)           2373.59  4372.85  4509.96  4654.06
 
 Zero-point correction=                           0.036334 (Hartree/Particle)
 Thermal correction to Energy=                    0.039438
 Thermal correction to Enthalpy=                  0.040382
 Thermal correction to Gibbs Free Energy=         0.013855
 Sum of electronic and zero-point Energies=            -77.890699
 Sum of electronic and thermal Energies=               -77.887594
 Sum of electronic and thermal Enthalpies=             -77.886650
 Sum of electronic and thermal Free Energies=          -77.913178
 
                     E (Thermal)             CV                S
                      KCal/Mol        Cal/Mol-Kelvin    Cal/Mol-Kelvin
 Total                   24.748              8.341             55.831
 Electronic               0.000              0.000              1.377
 Translational            0.889              2.981             35.818
 Rotational               0.889              2.981             17.922
 Vibrational             22.970              2.379              0.715
                       Q            Log10(Q)             Ln(Q)
 Total Bot       0.423717D-06         -6.372924        -14.674199
 Total V=0       0.218533D+11         10.339518         23.807620
 Vib (Bot)       0.208331D-16        -16.681247        -38.409991
 Vib (V=0)       0.107447D+01          0.031195          0.071828
 Electronic      0.200000D+01          0.301030          0.693147
 Translational   0.552163D+07          6.742067         15.524183
 Rotational      0.184173D+04          3.265226          7.518462
 -------------------------------------------------------------------
 Center     Atomic                   Forces (Hartrees/Bohr)
 Number     Number              X              Y              Z
 -------------------------------------------------------------------
    1          6          -0.000298477    0.000000001   -0.000315975
    2          1           0.000133519    0.000000000    0.000056743
    3          1           0.000065433   -0.000000001    0.000158439
    4          6           0.000067509    0.000000000    0.000111862
    5          1           0.000032016    0.000000000   -0.000011069
 -------------------------------------------------------------------
 Cartesian Forces:  Max     0.000315975 RMS     0.000131042

 GradGradGradGradGradGradGradGradGradGradGradGradGradGradGradGradGradGrad
 Berny optimization.
 Internal  Forces:  Max     0.000209137 RMS     0.000095858
 Search for a local minimum.
 Step number   1 out of a maximum of   2
 All quantities printed in internal units (Hartrees-Bohrs-Radians)
 Second derivative matrix not updated -- analytic derivatives used.
 The second derivative matrix:
                          R1        R2        R3        R4        A1
           R1           0.33007
           R2           0.00405   0.34526
           R3           0.01576   0.01502   0.65862
           R4           0.00083   0.00069  -0.00248   0.36506
           A1           0.00772   0.00638  -0.02658  -0.00200   0.06720
           A2           0.00671  -0.01428   0.01077  -0.00233  -0.03245
           A3          -0.01443   0.00790   0.01581   0.00432  -0.03475
           A4          -0.00518  -0.00098   0.02555   0.02086   0.00147
           D1           0.00000   0.00000   0.00000   0.00000   0.00000
           D2           0.00000   0.00000   0.00000   0.00000   0.00000
                          A2        A3        A4        D1        D2
           A2           0.06680
           A3          -0.03434   0.06909
           A4          -0.01086   0.00939   0.08634
           D1           0.00000   0.00000   0.00000   0.03760
           D2           0.00000   0.00000   0.00000  -0.02813   0.05036
     Eigenvalues ---    0.01513   0.07282   0.07529   0.09884   0.10760
     Eigenvalues ---    0.33056   0.34634   0.36680   0.663021000.00000
 Angle between quadratic step and forces=  21.21 degrees.
 Linear search not attempted -- first point.
 Iteration  1 RMS(Cart)=  0.00078707 RMS(Int)=  0.00000058
 Iteration  2 RMS(Cart)=  0.00000057 RMS(Int)=  0.00000001
 Variable       Old X    -DE/DX   Delta X   Delta X   Delta X     New X
                                 (Linear)    (Quad)   (Total)
    R1        2.06666   0.00006   0.00000   0.00029   0.00029   2.06695
    R2        2.05637  -0.00001   0.00000   0.00002   0.00002   2.05639
    R3        2.46544  -0.00014   0.00000  -0.00036  -0.00036   2.46508
    R4        2.04153  -0.00003   0.00000  -0.00013  -0.00013   2.04140
    A1        2.02335  -0.00021   0.00000  -0.00219  -0.00219   2.02115
    A2        2.12827   0.00007   0.00000   0.00076   0.00076   2.12903
    A3        2.13157   0.00014   0.00000   0.00144   0.00144   2.13300
    A4        2.41569   0.00001   0.00000   0.00025   0.00025   2.41594
    D1        0.00000   0.00000   0.00000   0.00000   0.00000   0.00000
    D2       -3.14159   0.00000   0.00000   0.00000   0.00000   3.14159
         Item               Value     Threshold  Converged?
 Maximum Force            0.000209     0.000450     YES
 RMS     Force            0.000096     0.000300     YES
 Maximum Displacement     0.001493     0.001800     YES
 RMS     Displacement     0.000787     0.001200     YES
 Predicted change in Energy=-3.930706D-07
 Optimization completed.
    -- Stationary point found.
                           ----------------------------
                           !   Optimized Parameters   !
                           ! (Angstroms and Degrees)  !
 --------------------------                            --------------------------
 ! Name  Definition              Value          Derivative Info.                !
 --------------------------------------------------------------------------------
 ! R1    R(1,2)                  1.0936         -DE/DX =    0.0001              !
 ! R2    R(1,3)                  1.0882         -DE/DX =    0.0                 !
 ! R3    R(1,4)                  1.3047         -DE/DX =   -0.0001              !
 ! R4    R(4,5)                  1.0803         -DE/DX =    0.0                 !
 ! A1    A(2,1,3)              115.9291         -DE/DX =   -0.0002              !
 ! A2    A(2,1,4)              121.941          -DE/DX =    0.0001              !
 ! A3    A(3,1,4)              122.1298         -DE/DX =    0.0001              !
 ! A4    A(1,4,5)              138.4089         -DE/DX =    0.0                 !
 ! D1    D(2,1,4,5)              0.0            -DE/DX =    0.0                 !
 ! D2    D(3,1,4,5)            180.0            -DE/DX =    0.0                 !
 --------------------------------------------------------------------------------
 GradGradGradGradGradGradGradGradGradGradGradGradGradGradGradGradGradGrad

 1\1\GINC-OSCARNODE08\Freq\UB3LYP\CBSB7\C2H3(2)\CFGOLD\09-Feb-2007\0\\#
 N GEOM=ALLCHECK GUESS=READ SCRF=CHECK B3LYP/CBSB7 FREQ\\vinyl radical\
 \0,2\C,-0.0004935866,-0.0000000056,-0.0035928209\H,0.0010098577,0.0000
 000014,1.0900366904\H,0.9774933918,0.0000000037,-0.4807561925\C,-1.108
 564476,-0.0000000024,-0.6922938655\H,-2.1733593948,0.0000000029,-0.509
 7337693\\Version=x86-Linux-G03RevB.05\HF=-77.9270327\S2=0.759895\S2-1=
 0.\S2A=0.750042\RMSD=2.550e-10\RMSF=1.310e-04\Dipole=-0.0323308,0.,0.2
 647215\DipoleDeriv=-0.0783397,0.,-0.0888837,0.,-0.282305,0.,-0.0632924
 ,0.,0.0820962,0.071948,0.,0.0049041,0.,0.1454492,0.,-0.0126974,0.,-0.0
 857309,-0.0372722,0.,0.0496454,0.,0.172799,0.,0.0604909,0.,0.046939,0.
 0388805,0.,0.0391065,0.,-0.2483349,0.,-0.0922739,0.,-0.1876374,0.00478
 34,0.,-0.0047722,0.,0.2123918,0.,0.1077728,0.,0.1443332\Polar=29.23741
 08,0.,11.9917984,5.696364,0.,20.8305538\PG=C01 [X(C2H3)]\NImag=0\\0.77
 503805,0.,0.09538753,0.12173554,0.,0.60440666,-0.04403861,0.,0.0026082
 4,0.04654183,0.,-0.03334470,0.,0.,0.01221266,0.00886921,0.,-0.30122951
 ,-0.00003854,0.,0.33007375,-0.26181247,0.,0.11444407,0.00133704,0.,-0.
 00108380,0.28888245,0.,-0.03140951,0.,0.,0.00914906,0.,0.,0.01661612,0
 .10963397,0.,-0.10117144,0.02552748,0.,-0.01149149,-0.11637808,0.,0.10
 506256,-0.46312594,0.,-0.25448142,-0.00449275,0.,-0.00735240,-0.026404
 55,0.,-0.01603512,0.84524458,0.,-0.03348168,0.,0.,0.01596440,0.,0.,-0.
 00377842,0.,0.,0.04684282,-0.21657856,0.,-0.21023518,-0.03095408,0.,-0
 .01998717,0.00307446,0.,0.00906799,0.20929742,0.,0.25770967,-0.0060610
 4,0.,0.01569357,0.00065249,0.,-0.00039447,-0.00200247,0.,-0.00274826,-
 0.35122134,0.,0.03516076,0.35863236,0.,0.00284836,0.,0.,-0.00398142,0.
 ,0.,0.00942275,0.,0.,-0.02554712,0.,0.,0.01725744,-0.02366016,0.,0.008
 22947,0.00285689,0.,0.00263442,-0.00005664,0.,-0.00146762,0.06857152,0
 .,-0.03655531,-0.04771161,0.,0.02715904\\0.00029848,0.,0.00031598,-0.0
 0013352,0.,-0.00005674,-0.00006543,0.,-0.00015844,-0.00006751,0.,-0.00
 011186,-0.00003202,0.,0.00001107\\\@


 Just remember, when you're over the hill, you begin to pick up speed.
 -- Charles Schulz
 Job cpu time:  0 days  0 hours  2 minutes  0.9 seconds.
 File lengths (MBytes):  RWF=     16 Int=      0 D2E=      0 Chk=     11 Scr=      1
 Normal termination of Gaussian 03 at Fri Feb  9 01:18:01 2007.
 Link1:  Proceeding to internal job step number  3.
 ---------------------------------------------------------
 #N Geom=AllCheck Guess=Read SCRF=Check CCSD(T)/6-31+G(d')
 ---------------------------------------------------------
 1/6=100,29=7,38=1,40=1,46=1/1;
 2/15=1,40=1/2;
 3/5=11,6=6,7=11,11=9,16=1,25=1,30=1,70=2/1,2,3;
 4/5=1/1;
 5/5=2,32=2,38=6/2;
 8/6=7,9=120000,10=1/1,4;
 9/5=7,14=2/13;
 6/7=2,8=2,9=2,10=2/1;
 99/5=1,9=1/99;
 -------------
 vinyl radical
 -------------
 Redundant internal coordinates taken from checkpoint file:
 test.chk
 Charge =  0 Multiplicity = 2
 C,0,-0.0004935866,-0.0000000056,-0.0035928209
 H,0,0.0010098577,0.0000000014,1.0900366904
 H,0,0.9774933918,0.0000000037,-0.4807561925
 C,0,-1.108564476,-0.0000000024,-0.6922938655
 H,0,-2.1733593948,0.0000000029,-0.5097337693
 Recover connectivity data from disk.
                          Input orientation:                          
 ---------------------------------------------------------------------
 Center     Atomic     Atomic              Coordinates (Angstroms)
 Number     Number      Type              X           Y           Z
 ---------------------------------------------------------------------
    1          6             0       -0.000494    0.000000   -0.003593
    2          1             0        0.001010    0.000000    1.090037
    3          1             0        0.977493    0.000000   -0.480756
    4          6             0       -1.108564    0.000000   -0.692294
    5          1             0       -2.173359    0.000000   -0.509734
 ---------------------------------------------------------------------
                    Distance matrix (angstroms):
                    1          2          3          4          5
     1  C    0.000000
     2  H    1.093631   0.000000
     3  H    1.088184   1.849570   0.000000
     4  C    1.304657   2.099490   2.096756   0.000000
     5  H    2.231037   2.699472   3.150986   1.080332   0.000000
 Symmetry turned off by external request.
 Stoichiometry    C2H3(2)
 Framework group  C1[X(C2H3)]
 Deg. of freedom     9
 Full point group                 C1      NOp   1
 Rotational constants (GHZ):    236.6818653     32.6770710     28.7128774
 Standard basis: 6-31+(d') (6D, 7F)
 Integral buffers will be    262144 words long.
 Raffenetti 2 integral format.
 Two-electron integral symmetry is turned off.
    44 basis functions,    76 primitive gaussians,    44 cartesian basis functions
     8 alpha electrons        7 beta electrons
       nuclear repulsion energy        28.4615841564 Hartrees.
 NAtoms=    5 NActive=    5 NUniq=    5 SFac= 1.00D+00 NAtFMM=   60 Big=F
 One-electron integrals computed using PRISM.
 NBasis=    44 RedAO= T  NBF=    44
 NBsUse=    44 1.00D-06 NBFU=    44
 Initial guess read from the checkpoint file:
 test.chk
 <S**2> of initial guess= 0.7598
 Requested convergence on RMS density matrix=1.00D-08 within 128 cycles.
 Requested convergence on MAX density matrix=1.00D-06.
 Requested convergence on             energy=1.00D-06.
 No special actions if energy rises.
 Keep R1 and R2 integrals in memory in canonical form, NReq=     1479500.
 SCF Done:  E(UHF) =  -77.3922121662     A.U. after   18 cycles
             Convg  =    0.2505D-08             -V/T =  2.0016
             S**2   =   0.9461
 Annihilation of the first spin contaminant:
 S**2 before annihilation     0.9461,   after     0.7559
 ExpMin= 4.38D-02 ExpMax= 3.05D+03 ExpMxC= 4.57D+02 IAcc=3 IRadAn=         5 AccDes= 0.00D+00
 HarFok:  IExCor= 205 AccDes= 0.00D+00 IRadAn=         5 IDoV=1
 ScaDFX=  1.000000  1.000000  1.000000  1.000000
 Range of M.O.s used for correlation:     3    44
 NBasis=    44 NAE=     8 NBE=     7 NFC=     2 NFV=     0
 NROrb=     42 NOA=     6 NOB=     5 NVA=    36 NVB=    37

 **** Warning!!: The largest alpha MO coefficient is  0.39820376D+02


 **** Warning!!: The largest beta MO coefficient is  0.34007809D+02

 Estimate disk for full transformation     4278379 words.
 Spin components of T(2) and E(2):
     alpha-alpha T2 =       0.1121906802D-01 E2=     -0.3091503502D-01
     alpha-beta  T2 =       0.5990309344D-01 E2=     -0.1659509187D+00
     beta-beta   T2 =       0.8472844991D-02 E2=     -0.2293713376D-01
 ANorm=    0.1039035614D+01
 E2=       -0.2198030875D+00 EUMP2=       -0.77612015253666D+02
 (S**2,0)=  0.94609D+00           (S**2,1)=  0.90206D+00
 E(PUHF)=      -0.77403863186D+02        E(PMP2)=      -0.77622381124D+02
 Iterations=  50 Convergence= 0.100D-06
 Iteration Nr.   1
 **********************
 E(PMP3)=      -0.77642814969D+02
 MP4(R+Q)=  0.40449970D-02
 E3=       -0.22571777D-01        EUMP3=      -0.77634587030D+02
 E4(DQ)=   -0.25403231D-02        UMP4(DQ)=   -0.77637127353D+02
 E4(SDQ)=  -0.60424892D-02        UMP4(SDQ)=  -0.77640629519D+02
 DE(Corr)= -0.23838949     E(CORR)=     -77.630601660    
 NORM(A)=   0.10498372D+01
 Iteration Nr.   2
 **********************
 DE(Corr)= -0.24719741     E(CORR)=     -77.639409576     Delta=-8.81D-03
 NORM(A)=   0.10600715D+01
 Iteration Nr.   3
 **********************
 DE(Corr)= -0.25109348     E(CORR)=     -77.643305646     Delta=-3.90D-03
 NORM(A)=   0.10714540D+01
 Iteration Nr.   4
 **********************
[...]
     1  C    4.873723   0.358156   0.396010   0.583126   0.006640
     2  H    0.358156   0.536205  -0.027419   0.014084  -0.001481
     3  H    0.396010  -0.027419   0.520615  -0.020289   0.001778
     4  C    0.583126   0.014084  -0.020289   5.240614   0.354428
     5  H    0.006640  -0.001481   0.001778   0.354428   0.498777
 Mulliken atomic charges:
              1
     1  C   -0.217655
     2  H    0.120455
     3  H    0.129305
     4  C   -0.171963
     5  H    0.139857
 Sum of Mulliken charges=   0.00000
 Atomic charges with hydrogens summed into heavy atoms:
              1
     1  C    0.032106
     2  H    0.000000
     3  H    0.000000
     4  C   -0.032106
     5  H    0.000000
 Sum of Mulliken charges=   0.00000
          Atomic-Atomic Spin Densities.
              1          2          3          4          5
     1  C   -0.693499  -0.014135   0.021953  -0.125521   0.000069
     2  H   -0.014135   0.132991  -0.012294   0.010835  -0.002827
     3  H    0.021953  -0.012294   0.089839  -0.020855   0.000895
     4  C   -0.125521   0.010835  -0.020855   1.814402  -0.015873
     5  H    0.000069  -0.002827   0.000895  -0.015873  -0.028226
 Mulliken atomic spin densities:
              1
     1  C   -0.811133
     2  H    0.114569
     3  H    0.079537
     4  C    1.662988
     5  H   -0.045962
 Sum of Mulliken spin densities=   1.00000
 Electronic spatial extent (au):  <R**2>=    92.0513
 Charge=     0.0000 electrons
 Dipole moment (field-independent basis, Debye):
    X=    -0.1164    Y=     0.0000    Z=     0.6227  Tot=     0.6335
 Quadrupole moment (field-independent basis, Debye-Ang):
   XX=   -10.5963   YY=   -15.1022   ZZ=   -13.5421
   XY=     0.0000   XZ=    -0.3619   YZ=     0.0000
 Traceless Quadrupole moment (field-independent basis, Debye-Ang):
   XX=     2.4839   YY=    -2.0220   ZZ=    -0.4619
   XY=     0.0000   XZ=    -0.3619   YZ=     0.0000
 Octapole moment (field-independent basis, Debye-Ang**2):
  XXX=    15.3245  YYY=     0.0000  ZZZ=    14.3477  XYY=     7.9132
  XXY=     0.0000  XXZ=     2.7570  XZZ=     8.0659  YZZ=     0.0000
  YYZ=     4.4989  XYZ=     0.0000
 Hexadecapole moment (field-independent basis, Debye-Ang**3):
 XXXX=   -61.9700 YYYY=   -19.7451 ZZZZ=   -41.6101 XXXY=     0.0000
 XXXZ=   -12.4609 YYYX=     0.0000 YYYZ=     0.0000 ZZZX=   -16.7724
 ZZZY=     0.0000 XXYY=   -17.4987 XXZZ=   -20.4718 YYZZ=   -10.4674
 XXYZ=     0.0000 YYXZ=    -5.3757 ZZXY=     0.0000
 N-N= 2.846158415643D+01 E-N=-2.367915485920D+02  KE= 7.727984572605D+01
 1\1\GINC-OSCARNODE08\SP\UMP4SDQ-FC\CBSB4\C2H3(2)\CFGOLD\09-Feb-2007\0\
 \#N GEOM=ALLCHECK GUESS=READ SCRF=CHECK MP4SDQ/CBSB4\\vinyl radical\\0
 ,2\C,0,-0.0004935866,-0.0000000056,-0.0035928209\H,0,0.0010098577,0.00
 00000014,1.0900366904\H,0,0.9774933918,0.0000000037,-0.4807561925\C,0,
 -1.108564476,-0.0000000024,-0.6922938655\H,0,-2.1733593948,0.000000002
 9,-0.5097337693\\Version=x86-Linux-G03RevB.05\HF=-77.39743\MP2=-77.635
 3134\MP3=-77.6597428\MP4D=-77.6665947\MP4DQ=-77.6618358\MP4SDQ=-77.665
 1165\PUHF=-77.4090134\PMP2-0=-77.6456144\PMP3-0=-77.6679079\S2=0.94438
 4\S2-1=0.900581\S2A=0.755786\RMSD=3.613e-09\PG=C01 [X(C2H3)]\\@


          EVOLUTION
 IN THE BEGINNING GOD MADE MAN.
 HE WORKED THE DIRT WITH HIS HANDS.
 THEN GOD DECIDED TO GIVE MAN SCIENCE,
 MAN SHOULD BE USEFUL (LIKE AN APPLIANCE.)
 BUT SOON MAN'S KNOWLEDGE GREW TOO GREAT,
 TO THE HEADING SCIENCE HE COULDN'T RELATE
 SO GOD SAID "LETS HAVE DIFFERENT FIELDS,
 WE'LL DIVIDE THEM UP, SEE WHAT IT YIELDS."
 ENTER PHYSICS, CHEMISTRY, BIO
 THEY SPRANG UP AROUND THE NILE.
 BUT CHEMISTRY SURPASSED THE REST
 FAR AND AWAY IT WAS THE BEST.
 EXPERIMENT WAS GOD'S DECREE
 EXPERIMENT DID CHEMISTS WITH LOTS OF GLEE
 BUT SOON THEIR TESTS BEGAN TO BOG,
 THEY FOUND THEMSELVES DEEP IN A FOG.
 "GIVE US SOME HELP" THEY CRIED TO GOD.
 GOD LOOKED AROUND, THEN GAVE THE NOD.
 ENTER EINSTEIN, HEISENBERG, BOHR,
 REACTION PATHS WERE CLEAR ONCE MORE.
 WITH THEORISTS GOD SEND DIRECTION
 AND THEN HE STOPPED, HE'D MADE PERFECTION.
          -- THOMAS A. HOLME, 1981
 Job cpu time:  0 days  0 hours  0 minutes 20.8 seconds.
 File lengths (MBytes):  RWF=    330 Int=      0 D2E=      0 Chk=     11 Scr=      1
 Normal termination of Gaussian 03 at Fri Feb  9 01:19:52 2007.
 Link1:  Proceeding to internal job step number  5.
 ----------------------------------------------------------------------
 #N Geom=AllCheck Guess=Read SCRF=Check MP2/CBSB3 CBSExtrap=(NMin=10,Mi
 nPop)
 ----------------------------------------------------------------------
 1/6=100,29=7,38=1,40=1,46=1/1;
 2/15=1,40=1/2;
 3/5=12,11=9,16=1,25=1,30=1,70=2/1,2,3;
 4/5=1/1;
 5/5=2,32=2,38=6/2;
 8/10=1/1;
 9/16=-3,75=2,81=10,83=4/6,4;
 6/7=2,8=2,9=2,10=2/1;
 99/5=1,9=1/99;
 -------------
 vinyl radical
 -------------
 Redundant internal coordinates taken from checkpoint file:
 test.chk
 Charge =  0 Multiplicity = 2
 C,0,-0.0004935866,-0.0000000056,-0.0035928209
 H,0,0.0010098577,0.0000000014,1.0900366904
 H,0,0.9774933918,0.0000000037,-0.4807561925
 C,0,-1.108564476,-0.0000000024,-0.6922938655
 H,0,-2.1733593948,0.0000000029,-0.5097337693
 Recover connectivity data from disk.
                          Input orientation:                          
 ---------------------------------------------------------------------
 Center     Atomic     Atomic              Coordinates (Angstroms)
 Number     Number      Type              X           Y           Z
 ---------------------------------------------------------------------
    1          6             0       -0.000494    0.000000   -0.003593
    2          1             0        0.001010    0.000000    1.090037
    3          1             0        0.977493    0.000000   -0.480756
    4          6             0       -1.108564    0.000000   -0.692294
    5          1             0       -2.173359    0.000000   -0.509734
 ---------------------------------------------------------------------
                    Distance matrix (angstroms):
                    1          2          3          4          5
     1  C    0.000000
     2  H    1.093631   0.000000
     3  H    1.088184   1.849570   0.000000
     4  C    1.304657   2.099490   2.096756   0.000000
     5  H    2.231037   2.699472   3.150986   1.080332   0.000000
 Symmetry turned off by external request.
 Stoichiometry    C2H3(2)
 Framework group  C1[X(C2H3)]
 Deg. of freedom     9
 Full point group                 C1      NOp   1
 Rotational constants (GHZ):    236.6818653     32.6770710     28.7128774
 Standard basis: CBSB3 (5D, 7F)
 Integral buffers will be    262144 words long.
 Raffenetti 2 integral format.
 Two-electron integral symmetry is turned off.
    98 basis functions,   140 primitive gaussians,   108 cartesian basis functions
     8 alpha electrons        7 beta electrons
       nuclear repulsion energy        28.4615841564 Hartrees.
 NAtoms=    5 NActive=    5 NUniq=    5 SFac= 1.00D+00 NAtFMM=   60 Big=F
 One-electron integrals computed using PRISM.
 NBasis=    98 RedAO= T  NBF=    98
 NBsUse=    98 1.00D-06 NBFU=    98
 Initial guess read from the checkpoint file:
 test.chk
 <S**2> of initial guess= 0.9445
 Requested convergence on RMS density matrix=1.00D-08 within 128 cycles.
 Requested convergence on MAX density matrix=1.00D-06.
 Requested convergence on             energy=1.00D-06.
 No special actions if energy rises.
 Keep R1 and R2 integrals in memory in canonical form, NReq=    36488588.
 SCF Done:  E(UHF) =  -77.4179592085     A.U. after   13 cycles
             Convg  =    0.5155D-08             -V/T =  2.0004
             S**2   =   0.9372
 Annihilation of the first spin contaminant:
 S**2 before annihilation     0.9372,   after     0.7557
 ExpMin= 3.60D-02 ExpMax= 4.56D+03 ExpMxC= 6.82D+02 IAcc=3 IRadAn=         5 AccDes= 0.00D+00
 HarFok:  IExCor= 205 AccDes= 0.00D+00 IRadAn=         5 IDoV=1
 ScaDFX=  1.000000  1.000000  1.000000  1.000000
 Range of M.O.s used for correlation:     3    98
 NBasis=    98 NAE=     8 NBE=     7 NFC=     2 NFV=     0
 NROrb=     96 NOA=     6 NOB=     5 NVA=    90 NVB=    91

 **** Warning!!: The largest alpha MO coefficient is  0.35622450D+02


 **** Warning!!: The largest beta MO coefficient is  0.31330116D+02

 Disk-based method using OVN memory for  6 occupieds at a time.
 Permanent disk used for amplitudes and <ij||ab> integrals=      693450 words.
 Estimated scratch disk usage=    12326508 words.
 Actual    scratch disk usage=     9224040 words.
 JobTyp=2 Pass  1:  I=   1 to   6 NPSUse=  1 ParTrn=F ParDer=F DoDerP=F.
 (rs|ai) integrals will be sorted in core.
 Actual    scratch disk usage=     9328236 words.
 JobTyp=3 Pass  1:  I=   1 to   5 NPSUse=  1 ParTrn=F ParDer=F DoDerP=F.
 (rs|ai) integrals will be sorted in core.
 Spin components of T(2) and E(2):
     alpha-alpha T2 =       0.1297085956D-01 E2=     -0.3718233073D-01
     alpha-beta  T2 =       0.7079937326D-01 E2=     -0.2160352314D+00
     beta-beta   T2 =       0.9728295812D-02 E2=     -0.2719110062D-01
 (S**2,0)=  0.93721D+00           (S**2,1)=  0.89433D+00
 E(PUHF)=      -0.77429356657D+02        E(PMP2)=      -0.77708483245D+02
 ANorm=    0.1045704800D+01
 E2 =    -0.2804086627D+00 EUMP2 =    -0.77698367871189D+02

 Complete Basis Set (CBS) Extrapolation:
 M. R. Nyden and G. A. Petersson, JCP 75, 1843 (1981)
 G. A. Petersson and M. A. Al-Laham, JCP 94, 6081 (1991)
 G. A. Petersson, T. Tensfeldt, and J. A. Montgomery, JCP 94, 6091 (1991)
 J. A. Montgomery, J. W. Ochterski, and G. A. Petersson, JCP 101, 5900 (1994)
 
 Minimum Number of PNO for Extrapolation =  10
 Absolute Overlaps: IRadAn =     99590
 LocTrn: ILocal=3 LocCor=F DoCore=F.
 LocMO: Using population method
 Initial Trace= 0.50000000D+01 Initial TraceA= 0.18878838D+01
 RMSG= 0.51513954D-10
 LocMO: Using population method
 Initial Trace= 0.50000000D+01 Initial TraceA= 0.19424671D+01
 RMSG= 0.39530954D-10
 There are a total of      245440 grid points.
 ElSum from orbitals=       14.9999998721
 E2(CBS)=      -0.308894 CBS-Int=       0.009991 OIii=       2.527342

 **********************************************************************

            Population analysis using the SCF density.

 **********************************************************************

 Alpha  occ. eigenvalues --  -11.25725 -11.22586  -1.05073  -0.78957  -0.63746
 Alpha  occ. eigenvalues --   -0.60265  -0.41027  -0.40127
 Alpha virt. eigenvalues --    0.04710   0.05943   0.06635   0.10532   0.12886
 Alpha virt. eigenvalues --    0.13228   0.14257   0.18680   0.18790   0.20947
 Alpha virt. eigenvalues --    0.21794   0.23062   0.26429   0.27934   0.37660
 Alpha virt. eigenvalues --    0.47972   0.57757   0.58486   0.67071   0.67672
 Alpha virt. eigenvalues --    0.68742   0.69369   0.75035   0.77383   0.78688
 Alpha virt. eigenvalues --    0.79215   0.82725   0.83216   0.90836   0.92775
 Alpha virt. eigenvalues --    0.94755   1.09394   1.11868   1.16143   1.24511
 Alpha virt. eigenvalues --    1.28475   1.35356   1.39747   1.52343   1.53886
 Alpha virt. eigenvalues --    1.58998   1.64806   1.70514   1.72529   1.76619
 Alpha virt. eigenvalues --    1.90729   2.69846   2.75968   2.92726   2.96392
 Alpha virt. eigenvalues --    2.97391   3.02893   3.07100   3.08286   3.13608
 Alpha virt. eigenvalues --    3.16072   3.19966   3.27384   3.37058   3.37549
 Alpha virt. eigenvalues --    3.44153   3.47377   3.49187   3.49635   3.55057
 Alpha virt. eigenvalues --    3.62689   3.64589   3.69915   3.72810   3.83298
 Alpha virt. eigenvalues --    3.93156   4.02646   4.09169   4.14146   4.27998
 Alpha virt. eigenvalues --    4.46188   4.47637   4.53195   4.67361   4.76901
 Alpha virt. eigenvalues --    4.84515   4.99586   5.16927   5.51124   5.65071
 Alpha virt. eigenvalues --    5.79482   5.99199   6.58759  24.95723  25.95771
  Beta  occ. eigenvalues --  -11.23854 -11.22230  -1.01815  -0.73957  -0.61487
  Beta  occ. eigenvalues --   -0.57244  -0.39733
  Beta virt. eigenvalues --    0.04689   0.05994   0.06549   0.08598   0.11296
  Beta virt. eigenvalues --    0.12876   0.14193   0.17121   0.18836   0.20201
  Beta virt. eigenvalues --    0.21078   0.22789   0.24629   0.26511   0.29212
  Beta virt. eigenvalues --    0.39128   0.49350   0.59994   0.60821   0.66474
  Beta virt. eigenvalues --    0.68342   0.69090   0.72163   0.77936   0.79257
  Beta virt. eigenvalues --    0.79383   0.82798   0.84178   0.85533   0.94934
  Beta virt. eigenvalues --    0.95067   0.98248   1.09926   1.12643   1.16404
  Beta virt. eigenvalues --    1.24660   1.30800   1.37487   1.40287   1.53387
  Beta virt. eigenvalues --    1.54700   1.61463   1.65244   1.71477   1.73494
  Beta virt. eigenvalues --    1.76723   1.92894   2.70665   2.76694   2.94512
  Beta virt. eigenvalues --    2.97562   2.98772   3.05579   3.07367   3.12392
  Beta virt. eigenvalues --    3.16100   3.18053   3.20140   3.30812   3.37024
  Beta virt. eigenvalues --    3.38967   3.43739   3.48954   3.51479   3.54114
  Beta virt. eigenvalues --    3.55769   3.65311   3.66828   3.74248   3.74806
  Beta virt. eigenvalues --    3.85395   3.94358   4.03780   4.10037   4.15436
  Beta virt. eigenvalues --    4.28962   4.47099   4.48165   4.53480   4.68548
  Beta virt. eigenvalues --    4.77449   4.85432   5.00550   5.17582   5.51991
  Beta virt. eigenvalues --    5.66024   5.80468   5.99431   6.59699  24.96822
  Beta virt. eigenvalues --   25.96276
          Condensed to atoms (all electrons):
              1          2          3          4          5
     1  C    4.723759   0.398575   0.428041   0.666177  -0.014740
     2  H    0.398575   0.606820  -0.048578  -0.014991  -0.008739
     3  H    0.428041  -0.048578   0.580255  -0.047795   0.005669
     4  C    0.666177  -0.014991  -0.047795   5.050034   0.394156
     5  H   -0.014740  -0.008739   0.005669   0.394156   0.523580
 Mulliken atomic charges:
              1
     1  C   -0.201812
     2  H    0.066913
     3  H    0.082407
     4  C   -0.047581
     5  H    0.100074
 Sum of Mulliken charges=   0.00000
 Atomic charges with hydrogens summed into heavy atoms:
              1
     1  C   -0.052493
     2  H    0.000000
     3  H    0.000000
     4  C    0.052493
     5  H    0.000000
 Sum of Mulliken charges=   0.00000
          Atomic-Atomic Spin Densities.
              1          2          3          4          5
     1  C   -0.621768   0.003285   0.008613  -0.029599  -0.007573
     2  H    0.003285   0.151774  -0.027424  -0.009650  -0.011208
     3  H    0.008613  -0.027424   0.100403  -0.019312   0.005400
     4  C   -0.029599  -0.009650  -0.019312   1.555746  -0.005390
     5  H   -0.007573  -0.011208   0.005400  -0.005390  -0.000440
 Mulliken atomic spin densities:
              1
     1  C   -0.647042
     2  H    0.106778
     3  H    0.067681
     4  C    1.491796
     5  H   -0.019212
 Sum of Mulliken spin densities=   1.00000
 Electronic spatial extent (au):  <R**2>=    91.9417
 Charge=     0.0000 electrons
 Dipole moment (field-independent basis, Debye):
    X=    -0.1048    Y=     0.0000    Z=     0.6059  Tot=     0.6149
 Quadrupole moment (field-independent basis, Debye-Ang):
   XX=   -10.5585   YY=   -15.0388   ZZ=   -13.4959
   XY=     0.0000   XZ=    -0.3122   YZ=     0.0000
 Traceless Quadrupole moment (field-independent basis, Debye-Ang):
   XX=     2.4725   YY=    -2.0077   ZZ=    -0.4648
   XY=     0.0000   XZ=    -0.3122   YZ=     0.0000
 Octapole moment (field-independent basis, Debye-Ang**2):
  XXX=    15.2394  YYY=     0.0000  ZZZ=    14.2809  XYY=     7.9152
  XXY=     0.0000  XXZ=     2.6611  XZZ=     8.0262  YZZ=     0.0000
  YYZ=     4.4588  XYZ=     0.0000
 Hexadecapole moment (field-independent basis, Debye-Ang**3):
 XXXX=   -61.2364 YYYY=   -19.0559 ZZZZ=   -40.9579 XXXY=     0.0000
 XXXZ=   -12.2533 YYYX=     0.0000 YYYZ=     0.0000 ZZZX=   -16.5984
 ZZZY=     0.0000 XXYY=   -17.2817 XXZZ=   -20.3049 YYZZ=   -10.2313
 XXYZ=     0.0000 YYXZ=    -5.2554 ZZXY=     0.0000
 N-N= 2.846158415643D+01 E-N=-2.369714638068D+02  KE= 7.739065012426D+01
 1\1\GINC-OSCARNODE08\SP\UMP2-FC\CBSB3\C2H3(2)\CFGOLD\09-Feb-2007\0\\#N
  GEOM=ALLCHECK GUESS=READ SCRF=CHECK MP2/CBSB3 CBSEXTRAP=(NMIN=10,MINP
 OP)\\vinyl radical\\0,2\C,0,-0.0004935866,-0.0000000056,-0.0035928209\
 H,0,0.0010098577,0.0000000014,1.0900366904\H,0,0.9774933918,0.00000000
 37,-0.4807561925\C,0,-1.108564476,-0.0000000024,-0.6922938655\H,0,-2.1
 733593948,0.0000000029,-0.5097337693\\Version=x86-Linux-G03RevB.05\HF=
 -77.4179592\MP2=-77.6983679\E2(CBS)=-0.3088942\CBS-Int=-0.2989033\OIii
 =2.5273423\PUHF=-77.4293567\PMP2-0=-77.7084832\S2=0.937212\S2-1=0.8943
 31\S2A=0.755683\RMSD=5.155e-09\PG=C01 [X(C2H3)]\\@


 IT IS THE BEHAVIOR AND DISTRIBUTION OF THE ELECTRONS 
 AROUND THE NUCLEUS THAT GIVES THE FUNDAMENTAL 
 CHARACTER OF AN ATOM:  IT MUST BE THE SAME FOR MOLECULES.

                               -- C. A. COULSON, 1951
 Diagonal vibrational polarizability:
        0.0000000       0.0000000       0.0000000

 Complete Basis Set (CBS) Extrapolation:
 M. R. Nyden and G. A. Petersson, JCP 75, 1843 (1981)
 G. A. Petersson and M. A. Al-Laham, JCP 94, 6081 (1991)
 G. A. Petersson, T. Tensfeldt, and J. A. Montgomery, JCP 94, 6091 (1991)
 J. A. Montgomery, J. W. Ochterski, and G. A. Petersson, JCP 101, 5900 (1994)

 Temperature=            298.150000 Pressure=                    1.000000
 E(ZPE)=                   0.035971 E(Thermal)=                  0.039084
 E(SCF)=                  -77.417959 DE(MP2)=                     -0.280409
 DE(CBS)=                  -0.028486 DE(MP34)=                    -0.029803
 DE(CCSD)=                 -0.015886 DE(Int)=                      0.009991
 DE(Empirical)=            -0.016419
 CBS-QB3 (0 K)=           -77.743001 CBS-QB3 Energy=             -77.739888
 CBS-QB3 Enthalpy=        -77.738943 CBS-QB3 Free Energy=        -77.765482
 1\1\GINC-OSCARNODE08\Mixed\CBS-QB3\CBS-QB3\C2H3(2)\CFGOLD\09-Feb-2007\
 0\\# CBS-QB3 NOSYM OPTCYC=100 SCF=TIGHT\\vinyl radical\\0,2\C,0,-0.000
 4935866,-0.0000000056,-0.0035928209\H,0,0.0010098577,0.0000000014,1.09
 00366904\H,0,0.9774933918,0.0000000037,-0.4807561925\C,0,-1.108564476,
 -0.0000000024,-0.6922938655\H,0,-2.1733593948,0.0000000029,-0.50973376
 93\\Version=x86-Linux-G03RevB.05\HF/CbsB3=-77.4179592\E2(CBS)/CbsB3=-0
 .3088942\CBS-Int/CbsB3=0.0099909\OIii/CbsB3=2.5273423\MP2/CbsB4=-77.63
 53134\MP4(SDQ)/CbsB4=-77.6651165\MP4(SDQ)/6-31+G(d')=-77.6406295\QCISD
 (T)/6-31+G(d')=-77.6565159\CBSQB3=-77.7430006\FreqCoord=-0.0009327435,
 -0.0000000107,-0.0067894476,0.0019083544,0.0000000027,2.0598708208,1.8
 471948083,0.000000007,-0.9084975411,-2.0948832614,-0.0000000045,-1.308
 2458101,-4.1070540467,0.0000000055,-0.9632572253\PG=C01 [X(C2H3)]\NIma
 g=0\\0.77503805,0.,0.09538753,0.12173554,0.,0.60440666,-0.04403861,0.,
 0.00260824,0.04654183,0.,-0.03334470,0.,0.,0.01221266,0.00886921,0.,-0
 .30122951,-0.00003854,0.,0.33007375,-0.26181247,0.,0.11444407,0.001337
 04,0.,-0.00108380,0.28888245,0.,-0.03140951,0.,0.,0.00914906,0.,0.,0.0
 1661612,0.10963397,0.,-0.10117144,0.02552748,0.,-0.01149149,-0.1163780
 8,0.,0.10506256,-0.46312594,0.,-0.25448142,-0.00449275,0.,-0.00735240,
 -0.02640455,0.,-0.01603512,0.84524458,0.,-0.03348168,0.,0.,0.01596440,
 0.,0.,-0.00377842,0.,0.,0.04684282,-0.21657856,0.,-0.21023518,-0.03095
 408,0.,-0.01998717,0.00307446,0.,0.00906799,0.20929742,0.,0.25770967,-
 0.00606104,0.,0.01569357,0.00065249,0.,-0.00039447,-0.00200247,0.,-0.0
 0274826,-0.35122134,0.,0.03516076,0.35863236,0.,0.00284836,0.,0.,-0.00
 398142,0.,0.,0.00942275,0.,0.,-0.02554712,0.,0.,0.01725744,-0.02366016
 ,0.,0.00822947,0.00285689,0.,0.00263442,-0.00005664,0.,-0.00146762,0.0
 6857152,0.,-0.03655531,-0.04771161,0.,0.02715904\\0.00029848,0.,0.0003
 1598,-0.00013352,0.,-0.00005674,-0.00006543,0.,-0.00015844,-0.00006751
 ,0.,-0.00011186,-0.00003202,0.,0.00001107\\\@
 Job cpu time:  0 days  0 hours  0 minutes 51.0 seconds.
 File lengths (MBytes):  RWF=    330 Int=      0 D2E=      0 Chk=     11 Scr=      1
 Normal termination of Gaussian 03 at Fri Feb  9 01:20:45 2007.
