 Entering Gaussian System, Link 0=g16
 Input=CC_G4.com
 Output=CC_G4.log
 Initial command:
 /shared/centos7/gaussian/g16/l1.exe "/scratch/westgroup/GAUSS_SCRDIR/Gau-12158.inp" -scrdir="/scratch/westgroup/GAUSS_SCRDIR/"
 Entering Link 1 = /shared/centos7/gaussian/g16/l1.exe PID=     12159.
  
 Copyright (c) 1988,1990,1992,1993,1995,1998,2003,2009,2016,
            Gaussian, Inc.  All Rights Reserved.
  
 This is part of the Gaussian(R) 16 program.  It is based on
 the Gaussian(R) 09 system (copyright 2009, Gaussian, Inc.),
 the Gaussian(R) 03 system (copyright 2003, Gaussian, Inc.),
 the Gaussian(R) 98 system (copyright 1998, Gaussian, Inc.),
 the Gaussian(R) 94 system (copyright 1995, Gaussian, Inc.),
 the Gaussian 92(TM) system (copyright 1992, Gaussian, Inc.),
 the Gaussian 90(TM) system (copyright 1990, Gaussian, Inc.),
 the Gaussian 88(TM) system (copyright 1988, Gaussian, Inc.),
 the Gaussian 86(TM) system (copyright 1986, Carnegie Mellon
 University), and the Gaussian 82(TM) system (copyright 1983,
 Carnegie Mellon University). Gaussian is a federally registered
 trademark of Gaussian, Inc.
  
 This software contains proprietary and confidential information,
 including trade secrets, belonging to Gaussian, Inc.
  
 This software is provided under written license and may be
 used, copied, transmitted, or stored only in accord with that
 written license.
  
 The following legend is applicable only to US Government
 contracts under FAR:
  
                    RESTRICTED RIGHTS LEGEND
  
 Use, reproduction and disclosure by the US Government is
 subject to restrictions as set forth in subparagraphs (a)
 and (c) of the Commercial Computer Software - Restricted
 Rights clause in FAR 52.227-19.
  
 Gaussian, Inc.
 340 Quinnipiac St., Bldg. 40, Wallingford CT 06492
  
  
 ---------------------------------------------------------------
 Warning -- This program may not be used in any manner that
 competes with the business of Gaussian, Inc. or will provide
 assistance to any competitor of Gaussian, Inc.  The licensee
 of this program is prohibited from giving any competitor of
 Gaussian, Inc. access to this program.  By using this program,
 the user acknowledges that Gaussian, Inc. is engaged in the
 business of creating and licensing software in the field of
 computational chemistry and represents and warrants to the
 licensee that it is not a competitor of Gaussian, Inc. and that
 it will not use this program in any manner prohibited above.
 ---------------------------------------------------------------
  

 Cite this work as:
 Gaussian 16, Revision A.03,
 M. J. Frisch, G. W. Trucks, H. B. Schlegel, G. E. Scuseria, 
 M. A. Robb, J. R. Cheeseman, G. Scalmani, V. Barone, 
 G. A. Petersson, H. Nakatsuji, X. Li, M. Caricato, A. V. Marenich, 
 J. Bloino, B. G. Janesko, R. Gomperts, B. Mennucci, H. P. Hratchian, 
 J. V. Ortiz, A. F. Izmaylov, J. L. Sonnenberg, D. Williams-Young, 
 F. Ding, F. Lipparini, F. Egidi, J. Goings, B. Peng, A. Petrone, 
 T. Henderson, D. Ranasinghe, V. G. Zakrzewski, J. Gao, N. Rega, 
 G. Zheng, W. Liang, M. Hada, M. Ehara, K. Toyota, R. Fukuda, 
 J. Hasegawa, M. Ishida, T. Nakajima, Y. Honda, O. Kitao, H. Nakai, 
 T. Vreven, K. Throssell, J. A. Montgomery, Jr., J. E. Peralta, 
 F. Ogliaro, M. J. Bearpark, J. J. Heyd, E. N. Brothers, K. N. Kudin, 
 V. N. Staroverov, T. A. Keith, R. Kobayashi, J. Normand, 
 K. Raghavachari, A. P. Rendell, J. C. Burant, S. S. Iyengar, 
 J. Tomasi, M. Cossi, J. M. Millam, M. Klene, C. Adamo, R. Cammi, 
 J. W. Ochterski, R. L. Martin, K. Morokuma, O. Farkas, 
 J. B. Foresman, and D. J. Fox, Gaussian, Inc., Wallingford CT, 2016.
 
 ******************************************
 Gaussian 16:  EM64L-G16RevA.03 25-Dec-2016
                30-Aug-2019 
 ******************************************
 %nprocshared=12
 Will use up to   12 processors via shared memory.
 %mem=80GB
 ------
 #p G4/
 ------
 1/18=20,19=15,26=3,38=1/1,3;
 2/9=110,12=2,17=6,18=5,40=1/2;
 3/5=35,7=104,11=2,25=1,30=1,71=1,74=-5/1,2,3;
 4//1;
 5/5=2,38=5/2;
 6/7=2,8=2,9=2,10=2,28=1/1;
 7//1,2,3,16;
 1/18=20,19=15,26=3/3(2);
 2/9=110/2;
 99//99;
 2/9=110/2;
 3/5=35,7=104,11=2,25=1,30=1,71=1,74=-5/1,2,3;
 4/5=5,16=3,69=1/1;
 5/5=2,38=5/2;
 7//1,2,3,16;
 1/18=20,19=15,26=3/3(-5);
 2/9=110/2;
 6/7=2,8=2,9=2,10=2,19=2,28=1/1;
 99/9=1/99;
 Leave Link    1 at Fri Aug 30 22:36:26 2019, MaxMem= 10737418240 cpu:              18.3 elap:               1.7
 (Enter /shared/centos7/gaussian/g16/l101.exe)
 ------------------------------
 Gaussian input prepared by ASE
 ------------------------------
 Symbolic Z-matrix:
 Charge =  0 Multiplicity = 1
 C                    -0.76191   0.00001  0. 
 C                     0.76191  -0.00001   0. 
 H                    -1.15655  -0.44137  -0.91472 
 H                    -1.15656  -0.57152   0.83958 
 H                    -1.15654   1.01287   0.07514 
 H                     1.15654  -1.01288  -0.07515 
 H                     1.15655   0.44136   0.91473 
 H                     1.15656   0.57153  -0.83957 
 
 ITRead=  0  0  0  0  0  0  0  0
 MicOpt= -1 -1 -1 -1 -1 -1 -1 -1
 NAtoms=      8 NQM=        8 NQMF=       0 NMMI=      0 NMMIF=      0
                NMic=       0 NMicF=      0.
                    Isotopes and Nuclear Properties:
 (Nuclear quadrupole moments (NQMom) in fm**2, nuclear magnetic moments (NMagM)
  in nuclear magnetons)

  Atom         1           2           3           4           5           6           7           8
 IAtWgt=          12          12           1           1           1           1           1           1
 AtmWgt=  12.0000000  12.0000000   1.0078250   1.0078250   1.0078250   1.0078250   1.0078250   1.0078250
 NucSpn=           0           0           1           1           1           1           1           1
 AtZEff=  -0.0000000  -0.0000000  -0.0000000  -0.0000000  -0.0000000  -0.0000000  -0.0000000  -0.0000000
 NQMom=    0.0000000   0.0000000   0.0000000   0.0000000   0.0000000   0.0000000   0.0000000   0.0000000
 NMagM=    0.0000000   0.0000000   2.7928460   2.7928460   2.7928460   2.7928460   2.7928460   2.7928460
 AtZNuc=   6.0000000   6.0000000   1.0000000   1.0000000   1.0000000   1.0000000   1.0000000   1.0000000
 Leave Link  101 at Fri Aug 30 22:36:26 2019, MaxMem= 10737418240 cpu:               5.7 elap:               0.5
 (Enter /shared/centos7/gaussian/g16/l103.exe)

 GradGradGradGradGradGradGradGradGradGradGradGradGradGradGradGradGradGrad
 Berny optimization.
 Initialization pass.
                           ----------------------------
                           !    Initial Parameters    !
                           ! (Angstroms and Degrees)  !
 --------------------------                            --------------------------
 ! Name  Definition              Value          Derivative Info.                !
 --------------------------------------------------------------------------------
 ! R1    R(1,2)                  1.5238         estimate D2E/DX2                !
 ! R2    R(1,3)                  1.0896         estimate D2E/DX2                !
 ! R3    R(1,4)                  1.0896         estimate D2E/DX2                !
 ! R4    R(1,5)                  1.0896         estimate D2E/DX2                !
 ! R5    R(2,6)                  1.0896         estimate D2E/DX2                !
 ! R6    R(2,7)                  1.0896         estimate D2E/DX2                !
 ! R7    R(2,8)                  1.0896         estimate D2E/DX2                !
 ! A1    A(2,1,3)              111.2341         estimate D2E/DX2                !
 ! A2    A(2,1,4)              111.2345         estimate D2E/DX2                !
 ! A3    A(2,1,5)              111.2341         estimate D2E/DX2                !
 ! A4    A(3,1,4)              107.6496         estimate D2E/DX2                !
 ! A5    A(3,1,5)              107.6535         estimate D2E/DX2                !
 ! A6    A(4,1,5)              107.6533         estimate D2E/DX2                !
 ! A7    A(1,2,6)              111.2342         estimate D2E/DX2                !
 ! A8    A(1,2,7)              111.2344         estimate D2E/DX2                !
 ! A9    A(1,2,8)              111.2344         estimate D2E/DX2                !
 ! A10   A(6,2,7)              107.6533         estimate D2E/DX2                !
 ! A11   A(6,2,8)              107.6533         estimate D2E/DX2                !
 ! A12   A(7,2,8)              107.6494         estimate D2E/DX2                !
 ! D1    D(3,1,2,6)            -59.9976         estimate D2E/DX2                !
 ! D2    D(3,1,2,7)           -179.9992         estimate D2E/DX2                !
 ! D3    D(3,1,2,8)             60.004          estimate D2E/DX2                !
 ! D4    D(4,1,2,6)             59.9992         estimate D2E/DX2                !
 ! D5    D(4,1,2,7)            -60.0024         estimate D2E/DX2                !
 ! D6    D(4,1,2,8)           -179.9992         estimate D2E/DX2                !
 ! D7    D(5,1,2,6)           -179.9992         estimate D2E/DX2                !
 ! D8    D(5,1,2,7)             59.9992         estimate D2E/DX2                !
 ! D9    D(5,1,2,8)            -59.9976         estimate D2E/DX2                !
 --------------------------------------------------------------------------------
 Trust Radius=3.00D-01 FncErr=1.00D-07 GrdErr=1.00D-06 EigMax=2.50D+02 EigMin=1.00D-04
 Number of steps in this run=     38 maximum allowed number of steps=    100.
 GradGradGradGradGradGradGradGradGradGradGradGradGradGradGradGradGradGrad

 Leave Link  103 at Fri Aug 30 22:36:26 2019, MaxMem= 10737418240 cpu:               0.6 elap:               0.1
 (Enter /shared/centos7/gaussian/g16/l202.exe)
                          Input orientation:                          
 ---------------------------------------------------------------------
 Center     Atomic      Atomic             Coordinates (Angstroms)
 Number     Number       Type             X           Y           Z
 ---------------------------------------------------------------------
      1          6           0       -0.761909    0.000006   -0.000002
      2          6           0        0.761908   -0.000006    0.000002
      3          1           0       -1.156545   -0.441368   -0.914716
      4          1           0       -1.156562   -0.571520    0.839576
      5          1           0       -1.156541    1.012875    0.075139
      6          1           0        1.156543   -1.012877   -0.075153
      7          1           0        1.156550    0.441357    0.914725
      8          1           0        1.156560    0.571532   -0.839568
 ---------------------------------------------------------------------
                    Distance matrix (angstroms):
                    1          2          3          4          5
     1  C    0.000000
     2  C    1.523817   0.000000
     3  H    1.089610   2.170708   0.000000
     4  H    1.089626   2.170723   1.759113   0.000000
     5  H    1.089626   2.170719   1.759158   1.759168   0.000000
     6  H    2.170723   1.089630   2.526235   2.526258   3.078411
     7  H    2.170714   1.089615   3.078387   2.526273   2.526248
     8  H    2.170723   1.089625   2.526276   3.078413   2.526244
                    6          7          8
     6  H    0.000000
     7  H    1.759163   0.000000
     8  H    1.759171   1.759116   0.000000
 Stoichiometry    C2H6
 Framework group  C1[X(C2H6)]
 Deg. of freedom    18
 Full point group                 C1      NOp   1
 Largest Abelian subgroup         C1      NOp   1
 Largest concise Abelian subgroup C1      NOp   1
                         Standard orientation:                         
 ---------------------------------------------------------------------
 Center     Atomic      Atomic             Coordinates (Angstroms)
 Number     Number       Type             X           Y           Z
 ---------------------------------------------------------------------
      1          6           0        0.761909   -0.000006   -0.000002
      2          6           0       -0.761908    0.000006    0.000002
      3          1           0        1.156545    0.438903   -0.915901
      4          1           0        1.156562    0.573779    0.838034
      5          1           0        1.156541   -1.012669    0.077866
      6          1           0       -1.156543    1.012671   -0.077881
      7          1           0       -1.156550   -0.438892    0.915910
      8          1           0       -1.156560   -0.573791   -0.838026
 ---------------------------------------------------------------------
 Rotational constants (GHZ):          81.0209293          20.1031792          20.1029875
 Leave Link  202 at Fri Aug 30 22:36:26 2019, MaxMem= 10737418240 cpu:               0.5 elap:               0.1
 (Enter /shared/centos7/gaussian/g16/l301.exe)
 Standard basis: GTBas3 (6D, 7F)
 Ernie: Thresh=  0.10000D-02 Tol=  0.10000D-05 Strict=F.
 There are    92 symmetry adapted cartesian basis functions of A   symmetry.
 There are    86 symmetry adapted basis functions of A   symmetry.
    86 basis functions,   130 primitive gaussians,    92 cartesian basis functions
     9 alpha electrons        9 beta electrons
       nuclear repulsion energy        42.3387097468 Hartrees.
 IExCor=  402 DFT=T Ex+Corr=B3LYP ExCW=0 ScaHFX=  0.200000
 ScaDFX=  0.800000  0.720000  1.000000  0.810000 ScalE2=  1.000000  1.000000
 IRadAn=      5 IRanWt=     -1 IRanGd=            0 ICorTp=0 IEmpDi=  4
 NAtoms=    8 NActive=    8 NUniq=    8 SFac= 1.00D+00 NAtFMM=   60 NAOKFM=F Big=F
 Integral buffers will be    131072 words long.
 Raffenetti 2 integral format.
 Two-electron integral symmetry is turned on.
 Leave Link  301 at Fri Aug 30 22:36:26 2019, MaxMem= 10737418240 cpu:               1.0 elap:               0.1
 (Enter /shared/centos7/gaussian/g16/l302.exe)
 NPDir=0 NMtPBC=     1 NCelOv=     1 NCel=       1 NClECP=     1 NCelD=      1
         NCelK=      1 NCelE2=     1 NClLst=     1 CellRange=     0.0.
 One-electron integrals computed using PRISM.
 One-electron integral symmetry used in STVInt
 NBasis=    86 RedAO= T EigKep=  1.42D-03  NBF=    86
 NBsUse=    86 1.00D-06 EigRej= -1.00D+00 NBFU=    86
 Precomputing XC quadrature grid using
 IXCGrd= 4 IRadAn=           5 IRanWt=          -1 IRanGd=           0 AccXCQ= 0.00D+00.
 Generated NRdTot=       0 NPtTot=           0 NUsed=           0 NTot=          32
 NSgBfM=    92    92    92    92    92 MxSgAt=     8 MxSgA2=     8.
 Leave Link  302 at Fri Aug 30 22:36:27 2019, MaxMem= 10737418240 cpu:               2.6 elap:               0.2
 (Enter /shared/centos7/gaussian/g16/l303.exe)
 DipDrv:  MaxL=1.
 Leave Link  303 at Fri Aug 30 22:36:27 2019, MaxMem= 10737418240 cpu:               0.5 elap:               0.1
 (Enter /shared/centos7/gaussian/g16/l401.exe)
 ExpMin= 1.61D-01 ExpMax= 3.05D+03 ExpMxC= 4.57D+02 IAcc=3 IRadAn=         5 AccDes= 0.00D+00
 Harris functional with IExCor=  402 and IRadAn=       5 diagonalized for initial guess.
 HarFok:  IExCor=  402 AccDes= 0.00D+00 IRadAn=         5 IDoV= 1 UseB2=F ITyADJ=14
 ICtDFT=  3500011 ScaDFX=  1.000000  1.000000  1.000000  1.000000
 FoFCou: FMM=F IPFlag=           0 FMFlag=      100000 FMFlg1=           0
         NFxFlg=           0 DoJE=T BraDBF=F KetDBF=T FulRan=T
         wScrn=  0.000000 ICntrl=       500 IOpCl=  0 I1Cent=   200000004 NGrid=           0
         NMat0=    1 NMatS0=      1 NMatT0=    0 NMatD0=    1 NMtDS0=    0 NMtDT0=    0
 Petite list used in FoFCou.
 Harris En= -79.8937145690409    
 JPrj=0 DoOrth=F DoCkMO=F.
 Leave Link  401 at Fri Aug 30 22:36:27 2019, MaxMem= 10737418240 cpu:               6.7 elap:               0.6
 (Enter /shared/centos7/gaussian/g16/l502.exe)
 Keep R1 ints in memory in canonical form, NReq=18002771.
 FoFCou: FMM=F IPFlag=           0 FMFlag=           0 FMFlg1=           0
         NFxFlg=           0 DoJE=F BraDBF=F KetDBF=F FulRan=T
         wScrn=  0.000000 ICntrl=       600 IOpCl=  0 I1Cent=           0 NGrid=           0
         NMat0=    1 NMatS0=   3741 NMatT0=    0 NMatD0=    1 NMtDS0=    0 NMtDT0=    0
 Symmetry not used in FoFCou.
 Two-electron integral symmetry not used.
 Closed shell SCF:
 Using DIIS extrapolation, IDIIS=  1040.
 NGot= 10737418240 LenX= 10730399709 LenY= 10730390804
 Requested convergence on RMS density matrix=1.00D-08 within 128 cycles.
 Requested convergence on MAX density matrix=1.00D-06.
 Requested convergence on             energy=1.00D-06.
 No special actions if energy rises.
 Integral accuracy reduced to 1.0D-05 until final iterations.

 Cycle   1  Pass 0  IDiag  1:
 E= -79.7094440180840    
 DIIS: error= 4.43D-02 at cycle   1 NSaved=   1.
 NSaved= 1 IEnMin= 1 EnMin= -79.7094440180840     IErMin= 1 ErrMin= 4.43D-02
 ErrMax= 4.43D-02  0.00D+00 EMaxC= 1.00D-01 BMatC= 1.14D-01 BMatP= 1.14D-01
 IDIUse=3 WtCom= 5.57D-01 WtEn= 4.43D-01
 Coeff-Com:  0.100D+01
 Coeff-En:   0.100D+01
 Coeff:      0.100D+01
 Gap=     0.379 Goal=   None    Shift=    0.000
 GapD=    0.379 DampG=1.000 DampE=0.500 DampFc=0.5000 IDamp=-1.
 Damping current iteration by 5.00D-01
 RMSDP=8.55D-03 MaxDP=1.37D-01              OVMax= 1.88D-01

 Cycle   2  Pass 0  IDiag  1:
 E= -79.7668806223975     Delta-E=       -0.057436604313 Rises=F Damp=T
 DIIS: error= 8.99D-03 at cycle   2 NSaved=   2.
 NSaved= 2 IEnMin= 2 EnMin= -79.7668806223975     IErMin= 2 ErrMin= 8.99D-03
 ErrMax= 8.99D-03  0.00D+00 EMaxC= 1.00D-01 BMatC= 4.03D-03 BMatP= 1.14D-01
 IDIUse=3 WtCom= 9.10D-01 WtEn= 8.99D-02
 Coeff-Com:  0.851D-01 0.915D+00
 Coeff-En:   0.132D+00 0.868D+00
 Coeff:      0.893D-01 0.911D+00
 Gap=     0.468 Goal=   None    Shift=    0.000
 RMSDP=1.05D-03 MaxDP=1.66D-02 DE=-5.74D-02 OVMax= 9.79D-02

 Cycle   3  Pass 0  IDiag  1:
 E= -79.8383586220504     Delta-E=       -0.071477999653 Rises=F Damp=F
 DIIS: error= 2.92D-03 at cycle   3 NSaved=   3.
 NSaved= 3 IEnMin= 3 EnMin= -79.8383586220504     IErMin= 3 ErrMin= 2.92D-03
 ErrMax= 2.92D-03  0.00D+00 EMaxC= 1.00D-01 BMatC= 2.10D-04 BMatP= 4.03D-03
 IDIUse=3 WtCom= 9.71D-01 WtEn= 2.92D-02
 Coeff-Com:  0.800D-02 0.137D+00 0.855D+00
 Coeff-En:   0.000D+00 0.000D+00 0.100D+01
 Coeff:      0.776D-02 0.133D+00 0.859D+00
 Gap=     0.444 Goal=   None    Shift=    0.000
 RMSDP=1.30D-04 MaxDP=1.20D-03 DE=-7.15D-02 OVMax= 5.21D-03

 Cycle   4  Pass 0  IDiag  1:
 E= -79.8385429400023     Delta-E=       -0.000184317952 Rises=F Damp=F
 DIIS: error= 7.13D-04 at cycle   4 NSaved=   4.
 NSaved= 4 IEnMin= 4 EnMin= -79.8385429400023     IErMin= 4 ErrMin= 7.13D-04
 ErrMax= 7.13D-04  0.00D+00 EMaxC= 1.00D-01 BMatC= 1.57D-05 BMatP= 2.10D-04
 IDIUse=3 WtCom= 9.93D-01 WtEn= 7.13D-03
 Coeff-Com:  0.111D-02-0.487D-02 0.202D+00 0.802D+00
 Coeff-En:   0.000D+00 0.000D+00 0.000D+00 0.100D+01
 Coeff:      0.110D-02-0.483D-02 0.200D+00 0.803D+00
 Gap=     0.444 Goal=   None    Shift=    0.000
 RMSDP=2.95D-05 MaxDP=3.20D-04 DE=-1.84D-04 OVMax= 1.30D-03

 Cycle   5  Pass 0  IDiag  1:
 E= -79.8385579713270     Delta-E=       -0.000015031325 Rises=F Damp=F
 DIIS: error= 1.51D-05 at cycle   5 NSaved=   5.
 NSaved= 5 IEnMin= 5 EnMin= -79.8385579713270     IErMin= 5 ErrMin= 1.51D-05
 ErrMax= 1.51D-05  0.00D+00 EMaxC= 1.00D-01 BMatC= 1.01D-08 BMatP= 1.57D-05
 IDIUse=1 WtCom= 1.00D+00 WtEn= 0.00D+00
 Coeff-Com:  0.161D-03-0.766D-03-0.685D-02-0.977D-02 0.102D+01
 Coeff:      0.161D-03-0.766D-03-0.685D-02-0.977D-02 0.102D+01
 Gap=     0.444 Goal=   None    Shift=    0.000
 RMSDP=1.18D-06 MaxDP=2.10D-05 DE=-1.50D-05 OVMax= 3.58D-05

 Initial convergence to 1.0D-05 achieved.  Increase integral accuracy.
 Cycle   6  Pass 1  IDiag  1:
 E= -79.8385605484585     Delta-E=       -0.000002577131 Rises=F Damp=F
 DIIS: error= 1.07D-06 at cycle   1 NSaved=   1.
 NSaved= 1 IEnMin= 1 EnMin= -79.8385605484585     IErMin= 1 ErrMin= 1.07D-06
 ErrMax= 1.07D-06  0.00D+00 EMaxC= 1.00D-01 BMatC= 9.62D-11 BMatP= 9.62D-11
 IDIUse=1 WtCom= 1.00D+00 WtEn= 0.00D+00
 Coeff-Com:  0.100D+01
 Coeff:      0.100D+01
 Gap=     0.444 Goal=   None    Shift=    0.000
 RMSDP=1.18D-06 MaxDP=2.10D-05 DE=-2.58D-06 OVMax= 4.42D-06

 Cycle   7  Pass 1  IDiag  1:
 E= -79.8385605485324     Delta-E=       -0.000000000074 Rises=F Damp=F
 DIIS: error= 7.25D-07 at cycle   2 NSaved=   2.
 NSaved= 2 IEnMin= 2 EnMin= -79.8385605485324     IErMin= 2 ErrMin= 7.25D-07
 ErrMax= 7.25D-07  0.00D+00 EMaxC= 1.00D-01 BMatC= 2.43D-11 BMatP= 9.62D-11
 IDIUse=1 WtCom= 1.00D+00 WtEn= 0.00D+00
 Coeff-Com:  0.258D+00 0.742D+00
 Coeff:      0.258D+00 0.742D+00
 Gap=     0.444 Goal=   None    Shift=    0.000
 RMSDP=8.42D-08 MaxDP=1.57D-06 DE=-7.40D-11 OVMax= 2.04D-06

 Cycle   8  Pass 1  IDiag  1:
 E= -79.8385605485480     Delta-E=       -0.000000000016 Rises=F Damp=F
 DIIS: error= 4.44D-07 at cycle   3 NSaved=   3.
 NSaved= 3 IEnMin= 3 EnMin= -79.8385605485480     IErMin= 3 ErrMin= 4.44D-07
 ErrMax= 4.44D-07  0.00D+00 EMaxC= 1.00D-01 BMatC= 1.02D-11 BMatP= 2.43D-11
 IDIUse=1 WtCom= 1.00D+00 WtEn= 0.00D+00
 Coeff-Com: -0.596D-02 0.392D+00 0.614D+00
 Coeff:     -0.596D-02 0.392D+00 0.614D+00
 Gap=     0.444 Goal=   None    Shift=    0.000
 RMSDP=3.23D-08 MaxDP=6.09D-07 DE=-1.56D-11 OVMax= 7.55D-07

 Cycle   9  Pass 1  IDiag  1:
 E= -79.8385605485588     Delta-E=       -0.000000000011 Rises=F Damp=F
 DIIS: error= 1.70D-08 at cycle   4 NSaved=   4.
 NSaved= 4 IEnMin= 4 EnMin= -79.8385605485588     IErMin= 4 ErrMin= 1.70D-08
 ErrMax= 1.70D-08  0.00D+00 EMaxC= 1.00D-01 BMatC= 8.02D-15 BMatP= 1.02D-11
 IDIUse=1 WtCom= 1.00D+00 WtEn= 0.00D+00
 Coeff-Com: -0.304D-02 0.465D-01 0.681D-01 0.888D+00
 Coeff:     -0.304D-02 0.465D-01 0.681D-01 0.888D+00
 Gap=     0.444 Goal=   None    Shift=    0.000
 RMSDP=9.43D-10 MaxDP=1.00D-08 DE=-1.07D-11 OVMax= 3.46D-08

 SCF Done:  E(RB3LYP) =  -79.8385605486     A.U. after    9 cycles
            NFock=  9  Conv=0.94D-09     -V/T= 2.0093
 KE= 7.910108503455D+01 PE=-2.686194547583D+02 EE= 6.734109942840D+01
 Leave Link  502 at Fri Aug 30 22:36:29 2019, MaxMem= 10737418240 cpu:              21.1 elap:               1.9
 (Enter /shared/centos7/gaussian/g16/l601.exe)
 Copying SCF densities to generalized density rwf, IOpCl= 0 IROHF=0.

 **********************************************************************

            Population analysis using the SCF density.

 **********************************************************************

 Orbital symmetries:
       Occupied  (A) (A) (A) (A) (A) (A) (A) (A) (A)
       Virtual   (A) (A) (A) (A) (A) (A) (A) (A) (A) (A) (A) (A)
                 (A) (A) (A) (A) (A) (A) (A) (A) (A) (A) (A) (A)
                 (A) (A) (A) (A) (A) (A) (A) (A) (A) (A) (A) (A)
                 (A) (A) (A) (A) (A) (A) (A) (A) (A) (A) (A) (A)
                 (A) (A) (A) (A) (A) (A) (A) (A) (A) (A) (A) (A)
                 (A) (A) (A) (A) (A) (A) (A) (A) (A) (A) (A) (A)
                 (A) (A) (A) (A) (A)
 The electronic state is 1-A.
 Alpha  occ. eigenvalues --  -10.16918 -10.16895  -0.74966  -0.61225  -0.43074
 Alpha  occ. eigenvalues --   -0.43073  -0.36272  -0.33901  -0.33900
 Alpha virt. eigenvalues --    0.10464   0.15562   0.16555   0.16555   0.19090
 Alpha virt. eigenvalues --    0.19090   0.23845   0.48439   0.51531   0.51531
 Alpha virt. eigenvalues --    0.56903   0.56904   0.58182   0.73157   0.73157
 Alpha virt. eigenvalues --    0.75945   0.75946   0.81677   0.81677   0.82075
 Alpha virt. eigenvalues --    0.91305   1.00216   1.19926   1.19926   1.36094
 Alpha virt. eigenvalues --    1.55468   1.58323   1.58324   1.61146   1.89217
 Alpha virt. eigenvalues --    1.89220   1.95733   1.97593   2.17163   2.17164
 Alpha virt. eigenvalues --    2.30630   2.30631   2.41046   2.45812   2.62719
 Alpha virt. eigenvalues --    2.76860   2.76861   2.77657   2.77660   2.87187
 Alpha virt. eigenvalues --    2.92795   2.92798   3.08811   3.08818   3.10065
 Alpha virt. eigenvalues --    3.30726   3.33895   3.53084   3.57005   3.57006
 Alpha virt. eigenvalues --    3.60401   3.71093   3.71095   3.81622   4.11327
 Alpha virt. eigenvalues --    4.11329   4.38343   4.38343   4.41894   4.41895
 Alpha virt. eigenvalues --    4.53194   4.53195   4.68151   4.75409   4.78249
 Alpha virt. eigenvalues --    4.78254   4.88699   4.88702   5.36552   5.50176
 Alpha virt. eigenvalues --   11.15619  11.82586
          Condensed to atoms (all electrons):
               1          2          3          4          5          6
     1  C    4.855075   0.423759   0.386717   0.386714   0.386716  -0.031403
     2  C    0.423759   4.855077  -0.031403  -0.031402  -0.031403   0.386715
     3  H    0.386717  -0.031403   0.598236  -0.033345  -0.033341  -0.003377
     4  H    0.386714  -0.031402  -0.033345   0.598239  -0.033340  -0.003377
     5  H    0.386716  -0.031403  -0.033341  -0.033340   0.598234   0.004964
     6  H   -0.031403   0.386715  -0.003377  -0.003377   0.004964   0.598235
     7  H   -0.031403   0.386716   0.004965  -0.003378  -0.003377  -0.033341
     8  H   -0.031402   0.386714  -0.003377   0.004964  -0.003377  -0.033340
               7          8
     1  C   -0.031403  -0.031402
     2  C    0.386716   0.386714
     3  H    0.004965  -0.003377
     4  H   -0.003378   0.004964
     5  H   -0.003377  -0.003377
     6  H   -0.033341  -0.033340
     7  H    0.598237  -0.033345
     8  H   -0.033345   0.598239
 Mulliken charges:
               1
     1  C   -0.344773
     2  C   -0.344774
     3  H    0.114926
     4  H    0.114924
     5  H    0.114924
     6  H    0.114923
     7  H    0.114926
     8  H    0.114924
 Sum of Mulliken charges =  -0.00000
 Mulliken charges with hydrogens summed into heavy atoms:
               1
     1  C    0.000001
     2  C   -0.000001
 Electronic spatial extent (au):  <R**2>=            108.6963
 Charge=             -0.0000 electrons
 Dipole moment (field-independent basis, Debye):
    X=              0.0000    Y=             -0.0000    Z=             -0.0000  Tot=              0.0000
 Quadrupole moment (field-independent basis, Debye-Ang):
   XX=            -15.2184   YY=            -14.6227   ZZ=            -14.6230
   XY=              0.0001   XZ=             -0.0000   YZ=             -0.0000
 Traceless Quadrupole moment (field-independent basis, Debye-Ang):
   XX=             -0.3970   YY=              0.1987   ZZ=              0.1984
   XY=              0.0001   XZ=             -0.0000   YZ=             -0.0000
 Octapole moment (field-independent basis, Debye-Ang**2):
  XXX=              0.0000  YYY=             -0.0000  ZZZ=              0.0000  XYY=              0.0000
  XXY=             -0.0000  XXZ=              0.0000  XZZ=              0.0000  YZZ=              0.0000
  YYZ=             -0.0000  XYZ=              0.0000
 Hexadecapole moment (field-independent basis, Debye-Ang**3):
 XXXX=            -91.7652 YYYY=            -28.3600 ZZZZ=            -28.3595 XXXY=              0.0003
 XXXZ=             -0.0001 YYYX=             -1.1888 YYYZ=             -0.0000 ZZZX=             -0.2787
 ZZZY=             -0.0001 XXYY=            -18.9169 XXZZ=            -18.9171 YYZZ=             -9.4532
 XXYZ=             -0.0000 YYXZ=              0.2787 ZZXY=              1.1889
 N-N= 4.233870974683D+01 E-N=-2.686194547925D+02  KE= 7.910108503455D+01
 No NMR shielding tensors so no spin-rotation constants.
 Leave Link  601 at Fri Aug 30 22:36:30 2019, MaxMem= 10737418240 cpu:               2.8 elap:               0.3
 (Enter /shared/centos7/gaussian/g16/l701.exe)
 ... and contract with generalized density number  0.
 Compute integral first derivatives.
 Leave Link  701 at Fri Aug 30 22:36:30 2019, MaxMem= 10737418240 cpu:               2.8 elap:               0.3
 (Enter /shared/centos7/gaussian/g16/l702.exe)
 L702 exits ... SP integral derivatives will be done elsewhere.
 Leave Link  702 at Fri Aug 30 22:36:30 2019, MaxMem= 10737418240 cpu:               0.6 elap:               0.1
 (Enter /shared/centos7/gaussian/g16/l703.exe)
 Integral derivatives from FoFJK, PRISM(SPDF).
 Compute integral first derivatives, UseDBF=F ICtDFT=           0.
 Calling FoFJK, ICntrl=      2127 FMM=F ISym2X=0 I1Cent= 0 IOpClX= 0 NMat=1 NMatS=1 NMatT=0.
 FoFJK:  IHMeth= 1 ICntrl=    2127 DoSepK=F KAlg= 0 I1Cent=           0 FoldK=F
 IRaf=         0 NMat=       1 IRICut=       1 DoRegI=T DoRafI=F ISym2E= 0 IDoP0=0 IntGTp=1.
 FoFCou: FMM=F IPFlag=           0 FMFlag=      100000 FMFlg1=         800
         NFxFlg=           0 DoJE=F BraDBF=F KetDBF=F FulRan=T
         wScrn=  0.000000 ICntrl=      2127 IOpCl=  0 I1Cent=           0 NGrid=           0
         NMat0=    1 NMatS0=      1 NMatT0=    0 NMatD0=    1 NMtDS0=    0 NMtDT0=    0
 Symmetry not used in FoFCou.
 Leave Link  703 at Fri Aug 30 22:36:31 2019, MaxMem= 10737418240 cpu:              16.2 elap:               1.4
 (Enter /shared/centos7/gaussian/g16/l716.exe)
 Dipole        = 1.56173293D-06-5.38704982D-07-1.34011653D-06
 ***** Axes restored to original set *****
 -------------------------------------------------------------------
 Center     Atomic                   Forces (Hartrees/Bohr)
 Number     Number              X              Y              Z
 -------------------------------------------------------------------
      1        6           0.000732896   -0.000000527    0.000007231
      2        6          -0.000730433   -0.000000450   -0.000004396
      3        1          -0.001668246   -0.001326053   -0.002756684
      4        1          -0.001664623   -0.001712778    0.002523339
      5        1          -0.001667172    0.003039160    0.000225572
      6        1           0.001666145   -0.003036822   -0.000225428
      7        1           0.001666709    0.001324755    0.002753897
      8        1           0.001664724    0.001712715   -0.002523532
 -------------------------------------------------------------------
 Cartesian Forces:  Max     0.003039160 RMS     0.001751060
 Leave Link  716 at Fri Aug 30 22:36:31 2019, MaxMem= 10737418240 cpu:               0.7 elap:               0.1
 (Enter /shared/centos7/gaussian/g16/l103.exe)

 GradGradGradGradGradGradGradGradGradGradGradGradGradGradGradGradGradGrad
 Berny optimization.
 FormGI is forming the generalized inverse of G from B-inverse, IUseBI=4.
 Internal  Forces:  Max     0.004267145 RMS     0.001811869
 Search for a local minimum.
 Step number   1 out of a maximum of   38
 All quantities printed in internal units (Hartrees-Bohrs-Radians)
 RMS Force = .18119D-02 SwitMx=.10000D-02 MixMth= 1
 Mixed Optimization -- RFO/linear search
 Second derivative matrix not updated -- first step.
 ITU=  0
     Eigenvalues ---    0.00451   0.05537   0.05537   0.05538   0.05538
     Eigenvalues ---    0.16000   0.16000   0.16000   0.16000   0.16000
     Eigenvalues ---    0.16000   0.30002   0.34855   0.34856   0.34856
     Eigenvalues ---    0.34856   0.34857   0.34858
 RFO step:  Lambda=-2.80025801D-04 EMin= 4.50894275D-03
 Linear search not attempted -- first point.
 Iteration  1 RMS(Cart)=  0.00828644 RMS(Int)=  0.00000752
 Iteration  2 RMS(Cart)=  0.00001009 RMS(Int)=  0.00000226
 Iteration  3 RMS(Cart)=  0.00000000 RMS(Int)=  0.00000226
 ITry= 1 IFail=0 DXMaxC= 1.59D-02 DCOld= 1.00D+10 DXMaxT= 3.00D-01 DXLimC= 3.00D+00 Rises=F
 Variable       Old X    -DE/DX   Delta X   Delta X   Delta X     New X
                                 (Linear)    (Quad)   (Total)
    R1        2.87960   0.00427   0.00000   0.01421   0.01421   2.89381
    R2        2.05906   0.00346   0.00000   0.00991   0.00991   2.06897
    R3        2.05909   0.00345   0.00000   0.00988   0.00988   2.06897
    R4        2.05909   0.00344   0.00000   0.00987   0.00987   2.06897
    R5        2.05910   0.00344   0.00000   0.00987   0.00987   2.06897
    R6        2.05907   0.00345   0.00000   0.00990   0.00990   2.06897
    R7        2.05909   0.00345   0.00000   0.00988   0.00988   2.06897
    A1        1.94140   0.00043   0.00000   0.00270   0.00270   1.94410
    A2        1.94141   0.00043   0.00000   0.00270   0.00270   1.94410
    A3        1.94140   0.00044   0.00000   0.00271   0.00270   1.94410
    A4        1.87884  -0.00046   0.00000  -0.00283  -0.00284   1.87600
    A5        1.87891  -0.00046   0.00000  -0.00289  -0.00289   1.87601
    A6        1.87890  -0.00046   0.00000  -0.00289  -0.00290   1.87601
    A7        1.94140   0.00044   0.00000   0.00271   0.00270   1.94411
    A8        1.94141   0.00043   0.00000   0.00270   0.00270   1.94410
    A9        1.94141   0.00043   0.00000   0.00270   0.00270   1.94410
   A10        1.87891  -0.00046   0.00000  -0.00289  -0.00289   1.87601
   A11        1.87890  -0.00046   0.00000  -0.00289  -0.00290   1.87601
   A12        1.87884  -0.00046   0.00000  -0.00283  -0.00284   1.87600
    D1       -1.04716  -0.00000   0.00000  -0.00003  -0.00003  -1.04718
    D2       -3.14158  -0.00000   0.00000  -0.00001  -0.00001  -3.14159
    D3        1.04727  -0.00000   0.00000  -0.00005  -0.00005   1.04721
    D4        1.04718   0.00000   0.00000   0.00002   0.00002   1.04720
    D5       -1.04724   0.00000   0.00000   0.00004   0.00004  -1.04720
    D6       -3.14158  -0.00000   0.00000  -0.00001  -0.00001  -3.14159
    D7       -3.14158  -0.00000   0.00000  -0.00001  -0.00001  -3.14159
    D8        1.04718   0.00000   0.00000   0.00001   0.00001   1.04720
    D9       -1.04716  -0.00000   0.00000  -0.00003  -0.00003  -1.04719
         Item               Value     Threshold  Converged?
 Maximum Force            0.004267     0.000450     NO 
 RMS     Force            0.001812     0.000300     NO 
 Maximum Displacement     0.015901     0.001800     NO 
 RMS     Displacement     0.008291     0.001200     NO 
 Predicted change in Energy=-1.401364D-04
 Lowest energy point so far.  Saving SCF results.
 GradGradGradGradGradGradGradGradGradGradGradGradGradGradGradGradGradGrad

 Leave Link  103 at Fri Aug 30 22:36:32 2019, MaxMem= 10737418240 cpu:               0.5 elap:               0.1
 (Enter /shared/centos7/gaussian/g16/l202.exe)
                          Input orientation:                          
 ---------------------------------------------------------------------
 Center     Atomic      Atomic             Coordinates (Angstroms)
 Number     Number       Type             X           Y           Z
 ---------------------------------------------------------------------
      1          6           0       -0.765668    0.000002   -0.000002
      2          6           0        0.765668   -0.000002    0.000003
      3          1           0       -1.164954   -0.443007   -0.918160
      4          1           0       -1.164961   -0.573646    0.842729
      5          1           0       -1.164955    1.016653    0.075426
      6          1           0        1.164957   -1.016652   -0.075432
      7          1           0        1.164955    0.443000    0.918164
      8          1           0        1.164962    0.573652   -0.842724
 ---------------------------------------------------------------------
                    Distance matrix (angstroms):
                    1          2          3          4          5
     1  C    0.000000
     2  C    1.531336   0.000000
     3  H    1.094852   2.183249   0.000000
     4  H    1.094852   2.183251   1.765728   0.000000
     5  H    1.094851   2.183251   1.765735   1.765731   0.000000
     6  H    2.183251   1.094851   2.543175   2.543185   3.096058
     7  H    2.183250   1.094852   3.096057   2.543181   2.543181
     8  H    2.183251   1.094852   2.543185   3.096059   2.543179
                    6          7          8
     6  H    0.000000
     7  H    1.765734   0.000000
     8  H    1.765731   1.765728   0.000000
 Stoichiometry    C2H6
 Framework group  C1[X(C2H6)]
 Deg. of freedom    18
 Full point group                 C1      NOp   1
 RotChk:  IX=0 Diff= 5.63D-01
 Largest Abelian subgroup         C1      NOp   1
 Largest concise Abelian subgroup C1      NOp   1
                         Standard orientation:                         
 ---------------------------------------------------------------------
 Center     Atomic      Atomic             Coordinates (Angstroms)
 Number     Number       Type             X           Y           Z
 ---------------------------------------------------------------------
      1          6           0        0.765668   -0.000001   -0.000001
      2          6           0       -0.765668    0.000001    0.000001
      3          1           0        1.164955    0.764138   -0.674806
      4          1           0        1.164959    0.202334    0.999163
      5          1           0        1.164957   -0.966470   -0.324355
      6          1           0       -1.164957    0.966471    0.324349
      7          1           0       -1.164956   -0.764133    0.674811
      8          1           0       -1.164959   -0.202342   -0.999162
 ---------------------------------------------------------------------
 Rotational constants (GHZ):          80.4179452          19.8822462          19.8822263
 Leave Link  202 at Fri Aug 30 22:36:32 2019, MaxMem= 10737418240 cpu:               0.4 elap:               0.1
 (Enter /shared/centos7/gaussian/g16/l301.exe)
 Standard basis: GTBas3 (6D, 7F)
 Ernie: Thresh=  0.10000D-02 Tol=  0.10000D-05 Strict=F.
 There are    92 symmetry adapted cartesian basis functions of A   symmetry.
 There are    86 symmetry adapted basis functions of A   symmetry.
    86 basis functions,   130 primitive gaussians,    92 cartesian basis functions
     9 alpha electrons        9 beta electrons
       nuclear repulsion energy        42.1253979399 Hartrees.
 IExCor=  402 DFT=T Ex+Corr=B3LYP ExCW=0 ScaHFX=  0.200000
 ScaDFX=  0.800000  0.720000  1.000000  0.810000 ScalE2=  1.000000  1.000000
 IRadAn=      5 IRanWt=     -1 IRanGd=            0 ICorTp=0 IEmpDi=  4
 NAtoms=    8 NActive=    8 NUniq=    8 SFac= 1.00D+00 NAtFMM=   60 NAOKFM=F Big=F
 Integral buffers will be    131072 words long.
 Raffenetti 2 integral format.
 Two-electron integral symmetry is turned on.
 Leave Link  301 at Fri Aug 30 22:36:32 2019, MaxMem= 10737418240 cpu:               0.8 elap:               0.1
 (Enter /shared/centos7/gaussian/g16/l302.exe)
 NPDir=0 NMtPBC=     1 NCelOv=     1 NCel=       1 NClECP=     1 NCelD=      1
         NCelK=      1 NCelE2=     1 NClLst=     1 CellRange=     0.0.
 One-electron integrals computed using PRISM.
 One-electron integral symmetry used in STVInt
 NBasis=    86 RedAO= T EigKep=  1.45D-03  NBF=    86
 NBsUse=    86 1.00D-06 EigRej= -1.00D+00 NBFU=    86
 Precomputing XC quadrature grid using
 IXCGrd= 4 IRadAn=           5 IRanWt=          -1 IRanGd=           0 AccXCQ= 0.00D+00.
 Generated NRdTot=       0 NPtTot=           0 NUsed=           0 NTot=          32
 NSgBfM=    92    92    92    92    92 MxSgAt=     8 MxSgA2=     8.
 Leave Link  302 at Fri Aug 30 22:36:32 2019, MaxMem= 10737418240 cpu:               2.6 elap:               0.2
 (Enter /shared/centos7/gaussian/g16/l303.exe)
 DipDrv:  MaxL=1.
 Leave Link  303 at Fri Aug 30 22:36:32 2019, MaxMem= 10737418240 cpu:               0.5 elap:               0.1
 (Enter /shared/centos7/gaussian/g16/l401.exe)
 Initial guess from the checkpoint file:  "/scratch/westgroup/GAUSS_SCRDIR/Gau-12159.chk"
 B after Tr=     0.000000   -0.000000    0.000000
         Rot=    0.980012   -0.198937    0.000001   -0.000001 Ang= -22.95 deg.
 Guess basis will be translated and rotated to current coordinates.
 JPrj=2 DoOrth=T DoCkMO=T.
 Leave Link  401 at Fri Aug 30 22:36:32 2019, MaxMem= 10737418240 cpu:               1.2 elap:               0.1
 (Enter /shared/centos7/gaussian/g16/l502.exe)
 Keep R1 ints in memory in canonical form, NReq=18002771.
 FoFCou: FMM=F IPFlag=           0 FMFlag=           0 FMFlg1=           0
         NFxFlg=           0 DoJE=F BraDBF=F KetDBF=F FulRan=T
         wScrn=  0.000000 ICntrl=       600 IOpCl=  0 I1Cent=           0 NGrid=           0
         NMat0=    1 NMatS0=   3741 NMatT0=    0 NMatD0=    1 NMtDS0=    0 NMtDT0=    0
 Symmetry not used in FoFCou.
 Two-electron integral symmetry not used.
 Closed shell SCF:
 Using DIIS extrapolation, IDIIS=  1040.
 NGot= 10737418240 LenX= 10730399709 LenY= 10730390804
 Requested convergence on RMS density matrix=1.00D-08 within 128 cycles.
 Requested convergence on MAX density matrix=1.00D-06.
 Requested convergence on             energy=1.00D-06.
 No special actions if energy rises.

 Cycle   1  Pass 1  IDiag  1:
 E= -79.8386655180331    
 DIIS: error= 6.45D-04 at cycle   1 NSaved=   1.
 NSaved= 1 IEnMin= 1 EnMin= -79.8386655180331     IErMin= 1 ErrMin= 6.45D-04
 ErrMax= 6.45D-04  0.00D+00 EMaxC= 1.00D-01 BMatC= 2.61D-05 BMatP= 2.61D-05
 IDIUse=3 WtCom= 9.94D-01 WtEn= 6.45D-03
 Coeff-Com:  0.100D+01
 Coeff-En:   0.100D+01
 Coeff:      0.100D+01
 Gap=     1.528 Goal=   None    Shift=    0.000
 RMSDP=7.18D-05 MaxDP=1.33D-03              OVMax= 2.27D-03

 Cycle   2  Pass 1  IDiag  1:
 E= -79.8386810865293     Delta-E=       -0.000015568496 Rises=F Damp=F
 DIIS: error= 4.84D-04 at cycle   2 NSaved=   2.
 NSaved= 2 IEnMin= 2 EnMin= -79.8386810865293     IErMin= 2 ErrMin= 4.84D-04
 ErrMax= 4.84D-04  0.00D+00 EMaxC= 1.00D-01 BMatC= 1.11D-05 BMatP= 2.61D-05
 IDIUse=3 WtCom= 9.95D-01 WtEn= 4.84D-03
 Coeff-Com:  0.360D+00 0.640D+00
 Coeff-En:   0.139D+00 0.861D+00
 Coeff:      0.359D+00 0.641D+00
 Gap=     0.443 Goal=   None    Shift=    0.000
 RMSDP=5.12D-05 MaxDP=8.70D-04 DE=-1.56D-05 OVMax= 1.18D-03

 Cycle   3  Pass 1  IDiag  1:
 E= -79.8386908235793     Delta-E=       -0.000009737050 Rises=F Damp=F
 DIIS: error= 1.89D-04 at cycle   3 NSaved=   3.
 NSaved= 3 IEnMin= 3 EnMin= -79.8386908235793     IErMin= 3 ErrMin= 1.89D-04
 ErrMax= 1.89D-04  0.00D+00 EMaxC= 1.00D-01 BMatC= 2.02D-06 BMatP= 1.11D-05
 IDIUse=3 WtCom= 9.98D-01 WtEn= 1.89D-03
 Coeff-Com:  0.580D-02 0.299D+00 0.695D+00
 Coeff-En:   0.000D+00 0.123D+00 0.877D+00
 Coeff:      0.579D-02 0.299D+00 0.695D+00
 Gap=     0.443 Goal=   None    Shift=    0.000
 RMSDP=1.37D-05 MaxDP=2.64D-04 DE=-9.74D-06 OVMax= 3.66D-04

 Cycle   4  Pass 1  IDiag  1:
 E= -79.8386928941383     Delta-E=       -0.000002070559 Rises=F Damp=F
 DIIS: error= 8.72D-06 at cycle   4 NSaved=   4.
 NSaved= 4 IEnMin= 4 EnMin= -79.8386928941383     IErMin= 4 ErrMin= 8.72D-06
 ErrMax= 8.72D-06  0.00D+00 EMaxC= 1.00D-01 BMatC= 3.12D-09 BMatP= 2.02D-06
 IDIUse=1 WtCom= 1.00D+00 WtEn= 0.00D+00
 Coeff-Com: -0.131D-02 0.594D-01 0.140D+00 0.801D+00
 Coeff:     -0.131D-02 0.594D-01 0.140D+00 0.801D+00
 Gap=     0.443 Goal=   None    Shift=    0.000
 RMSDP=5.22D-07 MaxDP=5.98D-06 DE=-2.07D-06 OVMax= 2.22D-05

 Cycle   5  Pass 1  IDiag  1:
 E= -79.8386928972207     Delta-E=       -0.000000003082 Rises=F Damp=F
 DIIS: error= 1.81D-06 at cycle   5 NSaved=   5.
 NSaved= 5 IEnMin= 5 EnMin= -79.8386928972207     IErMin= 5 ErrMin= 1.81D-06
 ErrMax= 1.81D-06  0.00D+00 EMaxC= 1.00D-01 BMatC= 8.31D-11 BMatP= 3.12D-09
 IDIUse=1 WtCom= 1.00D+00 WtEn= 0.00D+00
 Coeff-Com: -0.558D-03 0.529D-03 0.873D-03 0.138D+00 0.861D+00
 Coeff:     -0.558D-03 0.529D-03 0.873D-03 0.138D+00 0.861D+00
 Gap=     0.443 Goal=   None    Shift=    0.000
 RMSDP=8.16D-08 MaxDP=1.66D-06 DE=-3.08D-09 OVMax= 2.75D-06

 Cycle   6  Pass 1  IDiag  1:
 E= -79.8386928973007     Delta-E=       -0.000000000080 Rises=F Damp=F
 DIIS: error= 1.15D-07 at cycle   6 NSaved=   6.
 NSaved= 6 IEnMin= 6 EnMin= -79.8386928973007     IErMin= 6 ErrMin= 1.15D-07
 ErrMax= 1.15D-07  0.00D+00 EMaxC= 1.00D-01 BMatC= 2.95D-13 BMatP= 8.31D-11
 IDIUse=1 WtCom= 1.00D+00 WtEn= 0.00D+00
 Coeff-Com:  0.923D-05-0.368D-03-0.513D-03-0.331D-02-0.499D-02 0.101D+01
 Coeff:      0.923D-05-0.368D-03-0.513D-03-0.331D-02-0.499D-02 0.101D+01
 Gap=     0.443 Goal=   None    Shift=    0.000
 RMSDP=8.83D-09 MaxDP=1.77D-07 DE=-8.00D-11 OVMax= 2.03D-07

 SCF Done:  E(RB3LYP) =  -79.8386928973     A.U. after    6 cycles
            NFock=  6  Conv=0.88D-08     -V/T= 2.0100
 KE= 7.904746878481D+01 PE=-2.681536537621D+02 EE= 6.714209414009D+01
 Leave Link  502 at Fri Aug 30 22:36:34 2019, MaxMem= 10737418240 cpu:              20.9 elap:               1.8
 (Enter /shared/centos7/gaussian/g16/l701.exe)
 ... and contract with generalized density number  0.
 Compute integral first derivatives.
 Leave Link  701 at Fri Aug 30 22:36:34 2019, MaxMem= 10737418240 cpu:               2.8 elap:               0.3
 (Enter /shared/centos7/gaussian/g16/l702.exe)
 L702 exits ... SP integral derivatives will be done elsewhere.
 Leave Link  702 at Fri Aug 30 22:36:34 2019, MaxMem= 10737418240 cpu:               0.6 elap:               0.1
 (Enter /shared/centos7/gaussian/g16/l703.exe)
 Integral derivatives from FoFJK, PRISM(SPDF).
 Compute integral first derivatives, UseDBF=F ICtDFT=           0.
 Calling FoFJK, ICntrl=      2127 FMM=F ISym2X=0 I1Cent= 0 IOpClX= 0 NMat=1 NMatS=1 NMatT=0.
 FoFJK:  IHMeth= 1 ICntrl=    2127 DoSepK=F KAlg= 0 I1Cent=           0 FoldK=F
 IRaf=         0 NMat=       1 IRICut=       1 DoRegI=T DoRafI=F ISym2E= 0 IDoP0=0 IntGTp=1.
 FoFCou: FMM=F IPFlag=           0 FMFlag=      100000 FMFlg1=         800
         NFxFlg=           0 DoJE=F BraDBF=F KetDBF=F FulRan=T
         wScrn=  0.000000 ICntrl=      2127 IOpCl=  0 I1Cent=           0 NGrid=           0
         NMat0=    1 NMatS0=      1 NMatT0=    0 NMatD0=    1 NMtDS0=    0 NMtDT0=    0
 Symmetry not used in FoFCou.
 Leave Link  703 at Fri Aug 30 22:36:36 2019, MaxMem= 10737418240 cpu:              15.4 elap:               1.3
 (Enter /shared/centos7/gaussian/g16/l716.exe)
 Dipole        = 3.32789294D-08 6.27490226D-09 2.59863693D-08
 ***** Axes restored to original set *****
 -------------------------------------------------------------------
 Center     Atomic                   Forces (Hartrees/Bohr)
 Number     Number              X              Y              Z
 -------------------------------------------------------------------
      1        6           0.000530259   -0.000001120    0.000000219
      2        6          -0.000529946    0.000001083   -0.000000042
      3        1           0.000074591   -0.000006408   -0.000014999
      4        1           0.000075352   -0.000009286    0.000013174
      5        1           0.000073991    0.000016435    0.000001305
      6        1          -0.000074096   -0.000016427   -0.000001349
      7        1          -0.000074758    0.000006495    0.000014935
      8        1          -0.000075393    0.000009229   -0.000013243
 -------------------------------------------------------------------
 Cartesian Forces:  Max     0.000530259 RMS     0.000157731
 Leave Link  716 at Fri Aug 30 22:36:36 2019, MaxMem= 10737418240 cpu:               0.6 elap:               0.1
 (Enter /shared/centos7/gaussian/g16/l103.exe)

 GradGradGradGradGradGradGradGradGradGradGradGradGradGradGradGradGradGrad
 Berny optimization.
 Using GEDIIS/GDIIS optimizer.
 FormGI is forming the generalized inverse of G from B-inverse, IUseBI=4.
 Internal  Forces:  Max     0.000754194 RMS     0.000150957
 Search for a local minimum.
 Step number   2 out of a maximum of   38
 All quantities printed in internal units (Hartrees-Bohrs-Radians)
 RMS Force = .15096D-03 SwitMx=.10000D-02 MixMth= 2
 Mixed Optimization -- En-DIIS/RFO-DIIS
 Update second derivatives using D2CorX and points    1    2
 DE= -1.32D-04 DEPred=-1.40D-04 R= 9.44D-01
 TightC=F SS=  1.41D+00  RLast= 2.97D-02 DXNew= 5.0454D-01 8.9060D-02
 Trust test= 9.44D-01 RLast= 2.97D-02 DXMaxT set to 3.00D-01
 ITU=  1  0
 Use linear search instead of GDIIS.
     Eigenvalues ---    0.00451   0.05509   0.05509   0.05509   0.05509
     Eigenvalues ---    0.16000   0.16000   0.16000   0.16000   0.16000
     Eigenvalues ---    0.16213   0.31128   0.34837   0.34856   0.34856
     Eigenvalues ---    0.34856   0.34857   0.34858
 RFO step:  Lambda=-1.47999936D-06 EMin= 4.50894272D-03
 Quartic linear search produced a step of -0.04812.
 Iteration  1 RMS(Cart)=  0.00097733 RMS(Int)=  0.00000012
 Iteration  2 RMS(Cart)=  0.00000012 RMS(Int)=  0.00000005
 ITry= 1 IFail=0 DXMaxC= 1.98D-03 DCOld= 1.00D+10 DXMaxT= 3.00D-01 DXLimC= 3.00D+00 Rises=F
 Variable       Old X    -DE/DX   Delta X   Delta X   Delta X     New X
                                 (Linear)    (Quad)   (Total)
    R1        2.89381  -0.00075  -0.00068  -0.00164  -0.00233   2.89148
    R2        2.06897  -0.00001  -0.00048   0.00049   0.00001   2.06898
    R3        2.06897  -0.00001  -0.00048   0.00049   0.00001   2.06898
    R4        2.06897  -0.00001  -0.00048   0.00049   0.00002   2.06898
    R5        2.06897  -0.00001  -0.00047   0.00049   0.00001   2.06898
    R6        2.06897  -0.00001  -0.00048   0.00049   0.00001   2.06898
    R7        2.06897  -0.00001  -0.00048   0.00049   0.00001   2.06898
    A1        1.94410  -0.00007  -0.00013  -0.00029  -0.00042   1.94368
    A2        1.94410  -0.00007  -0.00013  -0.00030  -0.00043   1.94368
    A3        1.94410  -0.00007  -0.00013  -0.00029  -0.00042   1.94368
    A4        1.87600   0.00008   0.00014   0.00032   0.00046   1.87646
    A5        1.87601   0.00008   0.00014   0.00031   0.00045   1.87646
    A6        1.87601   0.00008   0.00014   0.00031   0.00045   1.87646
    A7        1.94411  -0.00007  -0.00013  -0.00029  -0.00042   1.94368
    A8        1.94410  -0.00007  -0.00013  -0.00029  -0.00042   1.94368
    A9        1.94410  -0.00007  -0.00013  -0.00030  -0.00043   1.94368
   A10        1.87601   0.00008   0.00014   0.00031   0.00045   1.87646
   A11        1.87601   0.00008   0.00014   0.00031   0.00045   1.87646
   A12        1.87600   0.00008   0.00014   0.00032   0.00046   1.87646
    D1       -1.04718  -0.00000   0.00000  -0.00001  -0.00001  -1.04719
    D2       -3.14159  -0.00000   0.00000  -0.00000  -0.00000  -3.14159
    D3        1.04721  -0.00000   0.00000  -0.00001  -0.00001   1.04721
    D4        1.04720   0.00000  -0.00000  -0.00000  -0.00000   1.04720
    D5       -1.04720   0.00000  -0.00000   0.00000   0.00000  -1.04720
    D6       -3.14159  -0.00000   0.00000  -0.00000  -0.00000  -3.14159
    D7       -3.14159   0.00000   0.00000  -0.00000  -0.00000  -3.14159
    D8        1.04720   0.00000  -0.00000   0.00000  -0.00000   1.04720
    D9       -1.04719  -0.00000   0.00000  -0.00001  -0.00000  -1.04719
         Item               Value     Threshold  Converged?
 Maximum Force            0.000754     0.000450     NO 
 RMS     Force            0.000151     0.000300     YES
 Maximum Displacement     0.001980     0.001800     NO 
 RMS     Displacement     0.000977     0.001200     YES
 Predicted change in Energy=-1.070367D-06
 Lowest energy point so far.  Saving SCF results.
 GradGradGradGradGradGradGradGradGradGradGradGradGradGradGradGradGradGrad

 Leave Link  103 at Fri Aug 30 22:36:36 2019, MaxMem= 10737418240 cpu:               0.6 elap:               0.1
 (Enter /shared/centos7/gaussian/g16/l202.exe)
                          Input orientation:                          
 ---------------------------------------------------------------------
 Center     Atomic      Atomic             Coordinates (Angstroms)
 Number     Number       Type             X           Y           Z
 ---------------------------------------------------------------------
      1          6           0       -0.765052    0.000002   -0.000002
      2          6           0        0.765053   -0.000002    0.000003
      3          1           0       -1.163910   -0.443080   -0.918320
      4          1           0       -1.163913   -0.573745    0.842874
      5          1           0       -1.163913    1.016828    0.075439
      6          1           0        1.163914   -1.016827   -0.075442
      7          1           0        1.163911    0.443076    0.918323
      8          1           0        1.163914    0.573749   -0.842871
 ---------------------------------------------------------------------
                    Distance matrix (angstroms):
                    1          2          3          4          5
     1  C    0.000000
     2  C    1.530105   0.000000
     3  H    1.094859   2.181865   0.000000
     4  H    1.094859   2.181862   1.766034   0.000000
     5  H    1.094859   2.181867   1.766037   1.766035   0.000000
     6  H    2.181867   1.094859   2.541337   2.541339   3.094721
     7  H    2.181865   1.094859   3.094718   2.541335   2.541340
     8  H    2.181862   1.094859   2.541338   3.094714   2.541337
                    6          7          8
     6  H    0.000000
     7  H    1.766036   0.000000
     8  H    1.766035   1.766034   0.000000
 Stoichiometry    C2H6
 Framework group  C1[X(C2H6)]
 Deg. of freedom    18
 Full point group                 C1      NOp   1
 RotChk:  IX=0 Diff= 1.36D-01
 Largest Abelian subgroup         C1      NOp   1
 Largest concise Abelian subgroup C1      NOp   1
                         Standard orientation:                         
 ---------------------------------------------------------------------
 Center     Atomic      Atomic             Coordinates (Angstroms)
 Number     Number       Type             X           Y           Z
 ---------------------------------------------------------------------
      1          6           0        0.765053   -0.000000   -0.000000
      2          6           0       -0.765052    0.000000    0.000000
      3          1           0        1.163912    0.825536   -0.598429
      4          1           0        1.163910    0.105490    1.014150
      5          1           0        1.163916   -0.931024   -0.415716
      6          1           0       -1.163916    0.931025    0.415713
      7          1           0       -1.163913   -0.825534    0.598432
      8          1           0       -1.163910   -0.105495   -1.014150
 ---------------------------------------------------------------------
 Rotational constants (GHZ):          80.3902405          19.9106336          19.9106260
 Leave Link  202 at Fri Aug 30 22:36:36 2019, MaxMem= 10737418240 cpu:               0.5 elap:               0.1
 (Enter /shared/centos7/gaussian/g16/l301.exe)
 Standard basis: GTBas3 (6D, 7F)
 Ernie: Thresh=  0.10000D-02 Tol=  0.10000D-05 Strict=F.
 There are    92 symmetry adapted cartesian basis functions of A   symmetry.
 There are    86 symmetry adapted basis functions of A   symmetry.
    86 basis functions,   130 primitive gaussians,    92 cartesian basis functions
     9 alpha electrons        9 beta electrons
       nuclear repulsion energy        42.1416560446 Hartrees.
 IExCor=  402 DFT=T Ex+Corr=B3LYP ExCW=0 ScaHFX=  0.200000
 ScaDFX=  0.800000  0.720000  1.000000  0.810000 ScalE2=  1.000000  1.000000
 IRadAn=      5 IRanWt=     -1 IRanGd=            0 ICorTp=0 IEmpDi=  4
 NAtoms=    8 NActive=    8 NUniq=    8 SFac= 1.00D+00 NAtFMM=   60 NAOKFM=F Big=F
 Integral buffers will be    131072 words long.
 Raffenetti 2 integral format.
 Two-electron integral symmetry is turned on.
 Leave Link  301 at Fri Aug 30 22:36:36 2019, MaxMem= 10737418240 cpu:               0.7 elap:               0.1
 (Enter /shared/centos7/gaussian/g16/l302.exe)
 NPDir=0 NMtPBC=     1 NCelOv=     1 NCel=       1 NClECP=     1 NCelD=      1
         NCelK=      1 NCelE2=     1 NClLst=     1 CellRange=     0.0.
 One-electron integrals computed using PRISM.
 One-electron integral symmetry used in STVInt
 NBasis=    86 RedAO= T EigKep=  1.44D-03  NBF=    86
 NBsUse=    86 1.00D-06 EigRej= -1.00D+00 NBFU=    86
 Precomputing XC quadrature grid using
 IXCGrd= 4 IRadAn=           5 IRanWt=          -1 IRanGd=           0 AccXCQ= 0.00D+00.
 Generated NRdTot=       0 NPtTot=           0 NUsed=           0 NTot=          32
 NSgBfM=    92    92    92    92    92 MxSgAt=     8 MxSgA2=     8.
 Leave Link  302 at Fri Aug 30 22:36:36 2019, MaxMem= 10737418240 cpu:               2.3 elap:               0.2
 (Enter /shared/centos7/gaussian/g16/l303.exe)
 DipDrv:  MaxL=1.
 Leave Link  303 at Fri Aug 30 22:36:36 2019, MaxMem= 10737418240 cpu:               0.5 elap:               0.1
 (Enter /shared/centos7/gaussian/g16/l401.exe)
 Initial guess from the checkpoint file:  "/scratch/westgroup/GAUSS_SCRDIR/Gau-12159.chk"
 B after Tr=    -0.000000    0.000000   -0.000000
         Rot=    0.998844   -0.048060    0.000001   -0.000000 Ang=  -5.51 deg.
 Guess basis will be translated and rotated to current coordinates.
 JPrj=2 DoOrth=T DoCkMO=T.
 Leave Link  401 at Fri Aug 30 22:36:36 2019, MaxMem= 10737418240 cpu:               1.1 elap:               0.1
 (Enter /shared/centos7/gaussian/g16/l502.exe)
 Keep R1 ints in memory in canonical form, NReq=18002771.
 FoFCou: FMM=F IPFlag=           0 FMFlag=           0 FMFlg1=           0
         NFxFlg=           0 DoJE=F BraDBF=F KetDBF=F FulRan=T
         wScrn=  0.000000 ICntrl=       600 IOpCl=  0 I1Cent=           0 NGrid=           0
         NMat0=    1 NMatS0=   3741 NMatT0=    0 NMatD0=    1 NMtDS0=    0 NMtDT0=    0
 Symmetry not used in FoFCou.
 Two-electron integral symmetry not used.
 Closed shell SCF:
 Using DIIS extrapolation, IDIIS=  1040.
 NGot= 10737418240 LenX= 10730399709 LenY= 10730390804
 Requested convergence on RMS density matrix=1.00D-08 within 128 cycles.
 Requested convergence on MAX density matrix=1.00D-06.
 Requested convergence on             energy=1.00D-06.
 No special actions if energy rises.

 Cycle   1  Pass 1  IDiag  1:
 E= -79.8386935312356    
 DIIS: error= 7.91D-05 at cycle   1 NSaved=   1.
 NSaved= 1 IEnMin= 1 EnMin= -79.8386935312356     IErMin= 1 ErrMin= 7.91D-05
 ErrMax= 7.91D-05  0.00D+00 EMaxC= 1.00D-01 BMatC= 2.34D-07 BMatP= 2.34D-07
 IDIUse=1 WtCom= 1.00D+00 WtEn= 0.00D+00
 Coeff-Com:  0.100D+01
 Coeff:      0.100D+01
 Gap=     1.534 Goal=   None    Shift=    0.000
 RMSDP=5.92D-06 MaxDP=9.55D-05              OVMax= 2.32D-04

 Cycle   2  Pass 1  IDiag  1:
 E= -79.8386937985818     Delta-E=       -0.000000267346 Rises=F Damp=F
 DIIS: error= 2.41D-05 at cycle   2 NSaved=   2.
 NSaved= 2 IEnMin= 2 EnMin= -79.8386937985818     IErMin= 2 ErrMin= 2.41D-05
 ErrMax= 2.41D-05  0.00D+00 EMaxC= 1.00D-01 BMatC= 1.88D-08 BMatP= 2.34D-07
 IDIUse=1 WtCom= 1.00D+00 WtEn= 0.00D+00
 Coeff-Com:  0.128D+00 0.872D+00
 Coeff:      0.128D+00 0.872D+00
 Gap=     0.443 Goal=   None    Shift=    0.000
 RMSDP=2.03D-06 MaxDP=3.61D-05 DE=-2.67D-07 OVMax= 5.24D-05

 Cycle   3  Pass 1  IDiag  1:
 E= -79.8386938053363     Delta-E=       -0.000000006755 Rises=F Damp=F
 DIIS: error= 1.51D-05 at cycle   3 NSaved=   3.
 NSaved= 3 IEnMin= 3 EnMin= -79.8386938053363     IErMin= 3 ErrMin= 1.51D-05
 ErrMax= 1.51D-05  0.00D+00 EMaxC= 1.00D-01 BMatC= 1.03D-08 BMatP= 1.88D-08
 IDIUse=1 WtCom= 1.00D+00 WtEn= 0.00D+00
 Coeff-Com:  0.808D-03 0.420D+00 0.579D+00
 Coeff:      0.808D-03 0.420D+00 0.579D+00
 Gap=     0.443 Goal=   None    Shift=    0.000
 RMSDP=1.16D-06 MaxDP=2.05D-05 DE=-6.75D-09 OVMax= 2.97D-05

 Cycle   4  Pass 1  IDiag  1:
 E= -79.8386938156444     Delta-E=       -0.000000010308 Rises=F Damp=F
 DIIS: error= 2.53D-06 at cycle   4 NSaved=   4.
 NSaved= 4 IEnMin= 4 EnMin= -79.8386938156444     IErMin= 4 ErrMin= 2.53D-06
 ErrMax= 2.53D-06  0.00D+00 EMaxC= 1.00D-01 BMatC= 3.06D-10 BMatP= 1.03D-08
 IDIUse=1 WtCom= 1.00D+00 WtEn= 0.00D+00
 Coeff-Com: -0.555D-02 0.921D-01 0.213D+00 0.700D+00
 Coeff:     -0.555D-02 0.921D-01 0.213D+00 0.700D+00
 Gap=     0.443 Goal=   None    Shift=    0.000
 RMSDP=2.08D-07 MaxDP=3.32D-06 DE=-1.03D-08 OVMax= 4.74D-06

 Cycle   5  Pass 1  IDiag  1:
 E= -79.8386938159641     Delta-E=       -0.000000000320 Rises=F Damp=F
 DIIS: error= 1.76D-07 at cycle   5 NSaved=   5.
 NSaved= 5 IEnMin= 5 EnMin= -79.8386938159641     IErMin= 5 ErrMin= 1.76D-07
 ErrMax= 1.76D-07  0.00D+00 EMaxC= 1.00D-01 BMatC= 1.27D-12 BMatP= 3.06D-10
 IDIUse=1 WtCom= 1.00D+00 WtEn= 0.00D+00
 Coeff-Com: -0.514D-03-0.171D-03 0.143D-01 0.959D-01 0.890D+00
 Coeff:     -0.514D-03-0.171D-03 0.143D-01 0.959D-01 0.890D+00
 Gap=     0.443 Goal=   None    Shift=    0.000
 RMSDP=9.79D-09 MaxDP=1.57D-07 DE=-3.20D-10 OVMax= 3.77D-07

 SCF Done:  E(RB3LYP) =  -79.8386938160     A.U. after    5 cycles
            NFock=  5  Conv=0.98D-08     -V/T= 2.0100
 KE= 7.904955156238D+01 PE=-2.681877079371D+02 EE= 6.715780651415D+01
 Leave Link  502 at Fri Aug 30 22:36:38 2019, MaxMem= 10737418240 cpu:              18.2 elap:               1.6
 (Enter /shared/centos7/gaussian/g16/l701.exe)
 ... and contract with generalized density number  0.
 Compute integral first derivatives.
 Leave Link  701 at Fri Aug 30 22:36:38 2019, MaxMem= 10737418240 cpu:               2.5 elap:               0.2
 (Enter /shared/centos7/gaussian/g16/l702.exe)
 L702 exits ... SP integral derivatives will be done elsewhere.
 Leave Link  702 at Fri Aug 30 22:36:38 2019, MaxMem= 10737418240 cpu:               0.3 elap:               0.1
 (Enter /shared/centos7/gaussian/g16/l703.exe)
 Integral derivatives from FoFJK, PRISM(SPDF).
 Compute integral first derivatives, UseDBF=F ICtDFT=           0.
 Calling FoFJK, ICntrl=      2127 FMM=F ISym2X=0 I1Cent= 0 IOpClX= 0 NMat=1 NMatS=1 NMatT=0.
 FoFJK:  IHMeth= 1 ICntrl=    2127 DoSepK=F KAlg= 0 I1Cent=           0 FoldK=F
 IRaf=         0 NMat=       1 IRICut=       1 DoRegI=T DoRafI=F ISym2E= 0 IDoP0=0 IntGTp=1.
 FoFCou: FMM=F IPFlag=           0 FMFlag=      100000 FMFlg1=         800
         NFxFlg=           0 DoJE=F BraDBF=F KetDBF=F FulRan=T
         wScrn=  0.000000 ICntrl=      2127 IOpCl=  0 I1Cent=           0 NGrid=           0
         NMat0=    1 NMatS0=      1 NMatT0=    0 NMatD0=    1 NMtDS0=    0 NMtDT0=    0
 Symmetry not used in FoFCou.
 Leave Link  703 at Fri Aug 30 22:36:40 2019, MaxMem= 10737418240 cpu:              15.3 elap:               1.3
 (Enter /shared/centos7/gaussian/g16/l716.exe)
 Dipole        = 6.43719789D-09 8.93572105D-10 1.01934847D-08
 ***** Axes restored to original set *****
 -------------------------------------------------------------------
 Center     Atomic                   Forces (Hartrees/Bohr)
 Number     Number              X              Y              Z
 -------------------------------------------------------------------
      1        6           0.000055700   -0.000000990    0.000000326
      2        6          -0.000055616    0.000000983   -0.000000291
      3        1          -0.000016670    0.000008086    0.000016555
      4        1          -0.000016996    0.000010575   -0.000015302
      5        1          -0.000015965   -0.000018295   -0.000001635
      6        1           0.000015937    0.000018293    0.000001641
      7        1           0.000016628   -0.000008049   -0.000016573
      8        1           0.000016982   -0.000010604    0.000015279
 -------------------------------------------------------------------
 Cartesian Forces:  Max     0.000055700 RMS     0.000020293
 Leave Link  716 at Fri Aug 30 22:36:40 2019, MaxMem= 10737418240 cpu:               0.5 elap:               0.1
 (Enter /shared/centos7/gaussian/g16/l103.exe)

 GradGradGradGradGradGradGradGradGradGradGradGradGradGradGradGradGradGrad
 Berny optimization.
 Using GEDIIS/GDIIS optimizer.
 FormGI is forming the generalized inverse of G from B-inverse, IUseBI=4.
 Internal  Forces:  Max     0.000023100 RMS     0.000015426
 Search for a local minimum.
 Step number   3 out of a maximum of   38
 All quantities printed in internal units (Hartrees-Bohrs-Radians)
 RMS Force = .15426D-04 SwitMx=.10000D-02 MixMth= 2
 Mixed Optimization -- En-DIIS/RFO-DIIS
 Swapping is turned off.
 Update second derivatives using D2CorX and points    1    2    3
 DE= -9.19D-07 DEPred=-1.07D-06 R= 8.58D-01
 TightC=F SS=  1.41D+00  RLast= 2.78D-03 DXNew= 5.0454D-01 8.3339D-03
 Trust test= 8.58D-01 RLast= 2.78D-03 DXMaxT set to 3.00D-01
 ITU=  1  1  0
     Eigenvalues ---    0.00451   0.05514   0.05514   0.05514   0.05514
     Eigenvalues ---    0.16000   0.16000   0.16000   0.16000   0.16000
     Eigenvalues ---    0.17537   0.30850   0.34073   0.34856   0.34856
     Eigenvalues ---    0.34856   0.34857   0.34858
 En-DIIS/RFO-DIIS/Sim-DIIS IScMMF=       -3 using points:     3    2
 RFO step:  Lambda=-2.85006767D-08.
 NNeg= 0 NGDIIS= 2 SimSw=  2.50D-03 Rises=F DC= -9.19D-07 SmlDif=  1.00D-05
 NRisDI= 0 DoIntr=F SqrtH=F CThrHd= 10.0 CDAdj=  3.0
 RMS Error=  0.8365478840D-04 NUsed= 2 OKEnD=F EnDIS=F
 InvSVX:  RCond= 8.68D-06 Info=           0 Equed=N FErr=  9.77D-16 BErr=  5.88D-17
 DidBck=F Rises=F RFO-DIIS coefs:    0.93208    0.06792
 Iteration  1 RMS(Cart)=  0.00010524 RMS(Int)=  0.00000001
 Iteration  2 RMS(Cart)=  0.00000001 RMS(Int)=  0.00000000
 ITry= 1 IFail=0 DXMaxC= 1.96D-04 DCOld= 1.00D+10 DXMaxT= 3.00D-01 DXLimC= 3.00D+00 Rises=F
 Variable       Old X    -DE/DX   Delta X   Delta X   Delta X     New X
                                 (Linear)    (Quad)   (Total)
    R1        2.89148  -0.00001   0.00016  -0.00022  -0.00006   2.89142
    R2        2.06898  -0.00001  -0.00000  -0.00003  -0.00003   2.06895
    R3        2.06898  -0.00001  -0.00000  -0.00003  -0.00003   2.06895
    R4        2.06898  -0.00001  -0.00000  -0.00003  -0.00003   2.06895
    R5        2.06898  -0.00001  -0.00000  -0.00003  -0.00003   2.06895
    R6        2.06898  -0.00001  -0.00000  -0.00003  -0.00003   2.06895
    R7        2.06898  -0.00001  -0.00000  -0.00003  -0.00003   2.06895
    A1        1.94368   0.00002   0.00003   0.00009   0.00012   1.94380
    A2        1.94368   0.00002   0.00003   0.00010   0.00012   1.94380
    A3        1.94368   0.00002   0.00003   0.00009   0.00011   1.94380
    A4        1.87646  -0.00002  -0.00003  -0.00010  -0.00013   1.87633
    A5        1.87646  -0.00002  -0.00003  -0.00010  -0.00013   1.87633
    A6        1.87646  -0.00002  -0.00003  -0.00010  -0.00013   1.87633
    A7        1.94368   0.00002   0.00003   0.00009   0.00011   1.94380
    A8        1.94368   0.00002   0.00003   0.00009   0.00012   1.94380
    A9        1.94368   0.00002   0.00003   0.00010   0.00012   1.94380
   A10        1.87646  -0.00002  -0.00003  -0.00010  -0.00013   1.87633
   A11        1.87646  -0.00002  -0.00003  -0.00010  -0.00013   1.87633
   A12        1.87646  -0.00002  -0.00003  -0.00010  -0.00013   1.87633
    D1       -1.04719  -0.00000   0.00000  -0.00001  -0.00001  -1.04719
    D2       -3.14159  -0.00000   0.00000  -0.00000  -0.00000  -3.14159
    D3        1.04721  -0.00000   0.00000  -0.00001  -0.00001   1.04720
    D4        1.04720   0.00000   0.00000  -0.00000  -0.00000   1.04720
    D5       -1.04720   0.00000  -0.00000   0.00000   0.00000  -1.04720
    D6       -3.14159  -0.00000   0.00000  -0.00000  -0.00000  -3.14159
    D7       -3.14159  -0.00000   0.00000  -0.00000  -0.00000  -3.14159
    D8        1.04720   0.00000   0.00000   0.00000   0.00000   1.04720
    D9       -1.04719  -0.00000   0.00000  -0.00000  -0.00000  -1.04720
         Item               Value     Threshold  Converged?
 Maximum Force            0.000023     0.000450     YES
 RMS     Force            0.000015     0.000300     YES
 Maximum Displacement     0.000196     0.001800     YES
 RMS     Displacement     0.000105     0.001200     YES
 Predicted change in Energy=-1.780389D-08
 Optimization completed.
    -- Stationary point found.
                           ----------------------------
                           !   Optimized Parameters   !
                           ! (Angstroms and Degrees)  !
 --------------------------                            --------------------------
 ! Name  Definition              Value          Derivative Info.                !
 --------------------------------------------------------------------------------
 ! R1    R(1,2)                  1.5301         -DE/DX =    0.0                 !
 ! R2    R(1,3)                  1.0949         -DE/DX =    0.0                 !
 ! R3    R(1,4)                  1.0949         -DE/DX =    0.0                 !
 ! R4    R(1,5)                  1.0949         -DE/DX =    0.0                 !
 ! R5    R(2,6)                  1.0949         -DE/DX =    0.0                 !
 ! R6    R(2,7)                  1.0949         -DE/DX =    0.0                 !
 ! R7    R(2,8)                  1.0949         -DE/DX =    0.0                 !
 ! A1    A(2,1,3)              111.3647         -DE/DX =    0.0                 !
 ! A2    A(2,1,4)              111.3645         -DE/DX =    0.0                 !
 ! A3    A(2,1,5)              111.3649         -DE/DX =    0.0                 !
 ! A4    A(3,1,4)              107.5131         -DE/DX =    0.0                 !
 ! A5    A(3,1,5)              107.5133         -DE/DX =    0.0                 !
 ! A6    A(4,1,5)              107.5131         -DE/DX =    0.0                 !
 ! A7    A(1,2,6)              111.3649         -DE/DX =    0.0                 !
 ! A8    A(1,2,7)              111.3647         -DE/DX =    0.0                 !
 ! A9    A(1,2,8)              111.3645         -DE/DX =    0.0                 !
 ! A10   A(6,2,7)              107.5133         -DE/DX =    0.0                 !
 ! A11   A(6,2,8)              107.5131         -DE/DX =    0.0                 !
 ! A12   A(7,2,8)              107.5131         -DE/DX =    0.0                 !
 ! D1    D(3,1,2,6)            -59.9995         -DE/DX =    0.0                 !
 ! D2    D(3,1,2,7)           -179.9998         -DE/DX =    0.0                 !
 ! D3    D(3,1,2,8)             60.0005         -DE/DX =    0.0                 !
 ! D4    D(4,1,2,6)             60.0003         -DE/DX =    0.0                 !
 ! D5    D(4,1,2,7)            -60.0            -DE/DX =    0.0                 !
 ! D6    D(4,1,2,8)           -179.9998         -DE/DX =    0.0                 !
 ! D7    D(5,1,2,6)           -179.9998         -DE/DX =    0.0                 !
 ! D8    D(5,1,2,7)             59.9999         -DE/DX =    0.0                 !
 ! D9    D(5,1,2,8)            -59.9998         -DE/DX =    0.0                 !
 --------------------------------------------------------------------------------
 Lowest energy point so far.  Saving SCF results.
 Largest change from initial coordinates is atom    8       0.500 Angstoms.
 GradGradGradGradGradGradGradGradGradGradGradGradGradGradGradGradGradGrad

 Leave Link  103 at Fri Aug 30 22:36:40 2019, MaxMem= 10737418240 cpu:               0.6 elap:               0.1
 (Enter /shared/centos7/gaussian/g16/l202.exe)
                          Input orientation:                          
 ---------------------------------------------------------------------
 Center     Atomic      Atomic             Coordinates (Angstroms)
 Number     Number       Type             X           Y           Z
 ---------------------------------------------------------------------
      1          6           0       -0.765052    0.000002   -0.000002
      2          6           0        0.765053   -0.000002    0.000003
      3          1           0       -1.163910   -0.443080   -0.918320
      4          1           0       -1.163913   -0.573745    0.842874
      5          1           0       -1.163913    1.016828    0.075439
      6          1           0        1.163914   -1.016827   -0.075442
      7          1           0        1.163911    0.443076    0.918323
      8          1           0        1.163914    0.573749   -0.842871
 ---------------------------------------------------------------------
                    Distance matrix (angstroms):
                    1          2          3          4          5
     1  C    0.000000
     2  C    1.530105   0.000000
     3  H    1.094859   2.181865   0.000000
     4  H    1.094859   2.181862   1.766034   0.000000
     5  H    1.094859   2.181867   1.766037   1.766035   0.000000
     6  H    2.181867   1.094859   2.541337   2.541339   3.094721
     7  H    2.181865   1.094859   3.094718   2.541335   2.541340
     8  H    2.181862   1.094859   2.541338   3.094714   2.541337
                    6          7          8
     6  H    0.000000
     7  H    1.766036   0.000000
     8  H    1.766035   1.766034   0.000000
 Stoichiometry    C2H6
 Framework group  C1[X(C2H6)]
 Deg. of freedom    18
 Full point group                 C1      NOp   1
 RotChk:  IX=0 Diff= 2.86D-10
 Largest Abelian subgroup         C1      NOp   1
 Largest concise Abelian subgroup C1      NOp   1
                         Standard orientation:                         
 ---------------------------------------------------------------------
 Center     Atomic      Atomic             Coordinates (Angstroms)
 Number     Number       Type             X           Y           Z
 ---------------------------------------------------------------------
      1          6           0        0.765053   -0.000000   -0.000000
      2          6           0       -0.765052    0.000000    0.000000
      3          1           0        1.163912    0.825536   -0.598429
      4          1           0        1.163910    0.105490    1.014150
      5          1           0        1.163916   -0.931024   -0.415716
      6          1           0       -1.163916    0.931025    0.415713
      7          1           0       -1.163913   -0.825534    0.598432
      8          1           0       -1.163910   -0.105495   -1.014150
 ---------------------------------------------------------------------
 Rotational constants (GHZ):          80.3902405          19.9106336          19.9106260
 Leave Link  202 at Fri Aug 30 22:36:40 2019, MaxMem= 10737418240 cpu:               0.9 elap:               0.1
 (Enter /shared/centos7/gaussian/g16/l601.exe)
 Copying SCF densities to generalized density rwf, IOpCl= 0 IROHF=0.

 **********************************************************************

            Population analysis using the SCF density.

 **********************************************************************

 Orbital symmetries:
       Occupied  (A) (A) (A) (A) (A) (A) (A) (A) (A)
       Virtual   (A) (A) (A) (A) (A) (A) (A) (A) (A) (A) (A) (A)
                 (A) (A) (A) (A) (A) (A) (A) (A) (A) (A) (A) (A)
                 (A) (A) (A) (A) (A) (A) (A) (A) (A) (A) (A) (A)
                 (A) (A) (A) (A) (A) (A) (A) (A) (A) (A) (A) (A)
                 (A) (A) (A) (A) (A) (A) (A) (A) (A) (A) (A) (A)
                 (A) (A) (A) (A) (A) (A) (A) (A) (A) (A) (A) (A)
                 (A) (A) (A) (A) (A)
 The electronic state is 1-A.
 Alpha  occ. eigenvalues --  -10.17146 -10.17125  -0.74744  -0.61146  -0.42899
 Alpha  occ. eigenvalues --   -0.42899  -0.36246  -0.33863  -0.33863
 Alpha virt. eigenvalues --    0.10397   0.15352   0.16369   0.16369   0.18987
 Alpha virt. eigenvalues --    0.18987   0.23636   0.48555   0.51495   0.51495
 Alpha virt. eigenvalues --    0.57080   0.57080   0.57830   0.73069   0.73069
 Alpha virt. eigenvalues --    0.75674   0.75674   0.81518   0.81518   0.81632
 Alpha virt. eigenvalues --    0.90760   0.99939   1.19558   1.19559   1.35888
 Alpha virt. eigenvalues --    1.55040   1.57919   1.57919   1.60422   1.88217
 Alpha virt. eigenvalues --    1.88217   1.95435   1.97240   2.16264   2.16264
 Alpha virt. eigenvalues --    2.30407   2.30407   2.40932   2.45521   2.62153
 Alpha virt. eigenvalues --    2.75786   2.75786   2.76549   2.76549   2.86127
 Alpha virt. eigenvalues --    2.92326   2.92326   3.07674   3.07674   3.08791
 Alpha virt. eigenvalues --    3.28988   3.32839   3.52393   3.55541   3.55541
 Alpha virt. eigenvalues --    3.59084   3.70837   3.70837   3.80095   4.10265
 Alpha virt. eigenvalues --    4.10265   4.38365   4.38365   4.41492   4.41492
 Alpha virt. eigenvalues --    4.54207   4.54207   4.66060   4.73487   4.75944
 Alpha virt. eigenvalues --    4.75944   4.87446   4.87446   5.34991   5.46714
 Alpha virt. eigenvalues --   11.14092  11.81495
          Condensed to atoms (all electrons):
               1          2          3          4          5          6
     1  C    4.859148   0.422096   0.385760   0.385760   0.385760  -0.030973
     2  C    0.422096   4.859148  -0.030973  -0.030974  -0.030973   0.385760
     3  H    0.385760  -0.030973   0.598007  -0.033140  -0.033140  -0.003250
     4  H    0.385760  -0.030974  -0.033140   0.598007  -0.033140  -0.003250
     5  H    0.385760  -0.030973  -0.033140  -0.033140   0.598006   0.004786
     6  H   -0.030973   0.385760  -0.003250  -0.003250   0.004786   0.598007
     7  H   -0.030973   0.385760   0.004786  -0.003250  -0.003250  -0.033140
     8  H   -0.030974   0.385760  -0.003250   0.004786  -0.003250  -0.033140
               7          8
     1  C   -0.030973  -0.030974
     2  C    0.385760   0.385760
     3  H    0.004786  -0.003250
     4  H   -0.003250   0.004786
     5  H   -0.003250  -0.003250
     6  H   -0.033140  -0.033140
     7  H    0.598007  -0.033140
     8  H   -0.033140   0.598007
 Mulliken charges:
               1
     1  C   -0.345603
     2  C   -0.345603
     3  H    0.115201
     4  H    0.115201
     5  H    0.115201
     6  H    0.115201
     7  H    0.115201
     8  H    0.115201
 Sum of Mulliken charges =  -0.00000
 Mulliken charges with hydrogens summed into heavy atoms:
               1
     1  C    0.000000
     2  C   -0.000000
 Electronic spatial extent (au):  <R**2>=            109.4815
 Charge=             -0.0000 electrons
 Dipole moment (field-independent basis, Debye):
    X=              0.0000    Y=              0.0000    Z=              0.0000  Tot=              0.0000
 Quadrupole moment (field-independent basis, Debye-Ang):
   XX=            -15.2099   YY=            -14.6540   ZZ=            -14.6540
   XY=             -0.0000   XZ=             -0.0000   YZ=             -0.0000
 Traceless Quadrupole moment (field-independent basis, Debye-Ang):
   XX=             -0.3706   YY=              0.1853   ZZ=              0.1853
   XY=             -0.0000   XZ=             -0.0000   YZ=             -0.0000
 Octapole moment (field-independent basis, Debye-Ang**2):
  XXX=             -0.0000  YYY=              0.0000  ZZZ=              0.0000  XYY=              0.0000
  XXY=             -0.0000  XXZ=              0.0000  XZZ=              0.0000  YZZ=             -0.0000
  YYZ=             -0.0000  XYZ=             -0.0000
 Hexadecapole moment (field-independent basis, Debye-Ang**3):
 XXXX=            -92.6788 YYYY=            -28.5694 ZZZZ=            -28.5694 XXXY=             -0.0000
 XXXZ=             -0.0000 YYYX=             -0.3836 YYYZ=             -0.0000 ZZZX=              1.1936
 ZZZY=              0.0000 XXYY=            -19.0700 XXZZ=            -19.0700 YYZZ=             -9.5231
 XXYZ=              0.0000 YYXZ=             -1.1936 ZZXY=              0.3836
 N-N= 4.214165604459D+01 E-N=-2.681877097161D+02  KE= 7.904955156238D+01
 No NMR shielding tensors so no spin-rotation constants.
 Leave Link  601 at Fri Aug 30 22:36:40 2019, MaxMem= 10737418240 cpu:               2.3 elap:               0.2
 (Enter /shared/centos7/gaussian/g16/l9999.exe)
 1\1\GINC-C0279\FOpt\RB3LYP\GTBas3\C2H6\FARINA.D\30-Aug-2019\0\\#p G4/\
 \Gaussian input prepared by ASE\\0,1\C,-0.7650520675,0.0000017567,-0.0
 000024095\C,0.7650529026,-0.0000019895,0.0000031219\H,-1.1639098994,-0
 .4430796692,-0.9183201501\H,-1.1639132448,-0.5737454169,0.8428737282\H
 ,-1.1639131458,1.0168275497,0.0754386425\H,1.1639141779,-1.0168274408,
 -0.0754418385\H,1.1639110675,0.4430756659,0.9183225821\H,1.1639142095,
 0.5737485441,-0.8428706767\\Version=EM64L-G16RevA.03\State=1-A\HF=-79.
 8386938\RMSD=9.794e-09\RMSF=2.029e-05\Dipole=0.,0.,0.\Quadrupole=-0.27
 55311,0.137769,0.1377621,-0.0000049,0.0000019,0.0000052\PG=C01 [X(C2H6
 )]\\@


 REPARTEE - WHAT YOU THINK OF AFTER YOU BECOME A DEPARTEE.
 Leave Link 9999 at Fri Aug 30 22:36:40 2019, MaxMem= 10737418240 cpu:               0.5 elap:               0.1
 Job cpu time:       0 days  0 hours  2 minutes 53.4 seconds.
 Elapsed time:       0 days  0 hours  0 minutes 16.0 seconds.
 File lengths (MBytes):  RWF=    272 Int=      0 D2E=      0 Chk=     32 Scr=     32
 Normal termination of Gaussian 16 at Fri Aug 30 22:36:40 2019.
 (Enter /shared/centos7/gaussian/g16/l1.exe)
 Link1:  Proceeding to internal job step number  2.
 ----------------------------------------------------------
 #P Geom=AllCheck Guess=TCheck SCRF=Check B3LYP/GTBas3 Freq
 ----------------------------------------------------------
 1/10=4,29=7,30=1,38=1,40=1/1,3;
 2/12=2,40=1/2;
 3/5=35,11=2,14=-4,25=1,30=1,70=2,71=2,74=-5,116=-2,140=1/1,2,3;
 4/5=101/1;
 5/5=2,38=6,98=1/2;
 8/6=4,10=90,11=11/1;
[...]
 DIIS: error= 4.83D-06 at cycle   4 NSaved=   4.
 NSaved= 4 IEnMin= 4 EnMin= -79.2660127090304     IErMin= 4 ErrMin= 4.83D-06
 ErrMax= 4.83D-06  0.00D+00 EMaxC= 1.00D-01 BMatC= 1.66D-09 BMatP= 1.24D-08
 IDIUse=1 WtCom= 1.00D+00 WtEn= 0.00D+00
 Coeff-Com:  0.108D-02-0.301D-01 0.252D+00 0.777D+00
 Coeff:      0.108D-02-0.301D-01 0.252D+00 0.777D+00
 Gap=     0.531 Goal=   None    Shift=    0.000
 RMSDP=1.54D-07 MaxDP=4.37D-06 DE=-1.36D-08 OVMax= 1.13D-05

 Cycle   5  Pass 1  IDiag  1:
 E= -79.2660127108124     Delta-E=       -0.000000001782 Rises=F Damp=F
 DIIS: error= 8.97D-07 at cycle   5 NSaved=   5.
 NSaved= 5 IEnMin= 5 EnMin= -79.2660127108124     IErMin= 5 ErrMin= 8.97D-07
 ErrMax= 8.97D-07  0.00D+00 EMaxC= 1.00D-01 BMatC= 3.40D-11 BMatP= 1.66D-09
 IDIUse=1 WtCom= 1.00D+00 WtEn= 0.00D+00
 Coeff-Com: -0.183D-03 0.543D-02-0.723D-01-0.714D-01 0.114D+01
 Coeff:     -0.183D-03 0.543D-02-0.723D-01-0.714D-01 0.114D+01
 Gap=     0.531 Goal=   None    Shift=    0.000
 RMSDP=7.13D-08 MaxDP=2.16D-06 DE=-1.78D-09 OVMax= 3.79D-06

 Cycle   6  Pass 1  IDiag  1:
 E= -79.2660127108862     Delta-E=       -0.000000000074 Rises=F Damp=F
 DIIS: error= 1.68D-07 at cycle   6 NSaved=   6.
 NSaved= 6 IEnMin= 6 EnMin= -79.2660127108862     IErMin= 6 ErrMin= 1.68D-07
 ErrMax= 1.68D-07  0.00D+00 EMaxC= 1.00D-01 BMatC= 1.05D-12 BMatP= 3.40D-11
 IDIUse=1 WtCom= 1.00D+00 WtEn= 0.00D+00
 Coeff-Com:  0.368D-04-0.114D-02 0.187D-01 0.578D-02-0.387D+00 0.136D+01
 Coeff:      0.368D-04-0.114D-02 0.187D-01 0.578D-02-0.387D+00 0.136D+01
 Gap=     0.531 Goal=   None    Shift=    0.000
 RMSDP=1.58D-08 MaxDP=9.98D-07 DE=-7.38D-11 OVMax= 8.68D-07

 Cycle   7  Pass 1  IDiag  1:
 E= -79.2660127108900     Delta-E=       -0.000000000004 Rises=F Damp=F
 DIIS: error= 1.73D-08 at cycle   7 NSaved=   7.
 NSaved= 7 IEnMin= 7 EnMin= -79.2660127108900     IErMin= 7 ErrMin= 1.73D-08
 ErrMax= 1.73D-08  0.00D+00 EMaxC= 1.00D-01 BMatC= 1.41D-14 BMatP= 1.05D-12
 IDIUse=1 WtCom= 1.00D+00 WtEn= 0.00D+00
 Coeff-Com: -0.248D-05 0.824D-04-0.173D-02 0.108D-02 0.412D-01-0.220D+00
 Coeff-Com:  0.118D+01
 Coeff:     -0.248D-05 0.824D-04-0.173D-02 0.108D-02 0.412D-01-0.220D+00
 Coeff:      0.118D+01
 Gap=     0.531 Goal=   None    Shift=    0.000
 RMSDP=1.08D-09 MaxDP=5.36D-08 DE=-3.75D-12 OVMax= 7.16D-08

 SCF Done:  E(RHF) =  -79.2660127109     A.U. after    7 cycles
            NFock=  7  Conv=0.11D-08     -V/T= 2.0014
 KE= 7.915323363104D+01 PE=-2.680671361565D+02 EE= 6.750623377000D+01
 Leave Link  502 at Fri Aug 30 22:38:13 2019, MaxMem= 10737418240 cpu:             311.3 elap:              40.5
 (Enter /shared/centos7/gaussian/g16/l601.exe)
 Copying SCF densities to generalized density rwf, IOpCl= 0 IROHF=0.

 **********************************************************************

            Population analysis using the SCF density.

 **********************************************************************

 Orbital symmetries:
       Occupied  (A) (A) (A) (A) (A) (A) (A) (A) (A)
       Virtual   (A) (A) (A) (A) (A) (A) (A) (A) (A) (A) (A) (A)
                 (A) (A) (A) (A) (A) (A) (A) (A) (A) (A) (A) (A)
                 (A) (A) (A) (A) (A) (A) (A) (A) (A) (A) (A) (A)
                 (A) (A) (A) (A) (A) (A) (A) (A) (A) (A) (A) (A)
                 (A) (A) (A) (A) (A) (A) (A) (A) (A) (A) (A) (A)
                 (A) (A) (A) (A) (A) (A) (A) (A) (A) (A) (A) (A)
                 (A) (A) (A) (A) (A) (A) (A) (A) (A) (A) (A) (A)
                 (A) (A) (A) (A) (A) (A) (A) (A) (A) (A) (A) (A)
                 (A) (A) (A) (A) (A) (A) (A) (A) (A) (A) (A) (A)
                 (A) (A) (A) (A) (A) (A) (A) (A) (A) (A) (A) (A)
                 (A) (A) (A) (A) (A) (A) (A) (A) (A) (A) (A) (A)
                 (A) (A) (A) (A) (A) (A) (A) (A) (A) (A) (A) (A)
                 (A) (A) (A) (A) (A) (A) (A) (A) (A) (A) (A) (A)
                 (A) (A) (A) (A) (A) (A) (A) (A) (A) (A) (A) (A)
                 (A) (A) (A) (A) (A) (A) (A) (A) (A) (A) (A) (A)
                 (A) (A) (A) (A) (A) (A) (A) (A) (A) (A) (A) (A)
                 (A) (A) (A) (A) (A) (A) (A) (A) (A) (A) (A) (A)
                 (A) (A) (A) (A) (A) (A) (A) (A) (A) (A) (A) (A)
                 (A) (A) (A) (A) (A) (A) (A) (A) (A) (A) (A) (A)
                 (A) (A) (A) (A) (A) (A) (A) (A) (A) (A) (A) (A)
                 (A) (A) (A) (A) (A) (A) (A) (A) (A) (A) (A) (A)
                 (A) (A) (A) (A) (A) (A) (A) (A) (A) (A) (A) (A)
                 (A) (A) (A) (A) (A) (A) (A) (A) (A) (A) (A) (A)
                 (A) (A) (A) (A) (A) (A) (A) (A) (A) (A) (A) (A)
                 (A) (A) (A) (A) (A) (A) (A) (A) (A) (A) (A) (A)
                 (A) (A) (A) (A) (A) (A) (A) (A) (A) (A) (A) (A)
                 (A) (A) (A) (A) (A) (A) (A) (A) (A) (A) (A) (A)
                 (A)
 The electronic state is 1-A.
 Alpha  occ. eigenvalues --  -11.21222 -11.21162  -1.01538  -0.84038  -0.59479
 Alpha  occ. eigenvalues --   -0.59479  -0.50964  -0.48595  -0.48595
 Alpha virt. eigenvalues --    0.04456   0.05277   0.05934   0.05934   0.08283
 Alpha virt. eigenvalues --    0.08283   0.08800   0.14731   0.17815   0.17816
 Alpha virt. eigenvalues --    0.20770   0.20770   0.23199   0.25092   0.28291
 Alpha virt. eigenvalues --    0.28821   0.28823   0.28823   0.28993   0.28993
 Alpha virt. eigenvalues --    0.44736   0.44736   0.47155   0.47155   0.48202
 Alpha virt. eigenvalues --    0.49703   0.51932   0.54129   0.54129   0.60230
 Alpha virt. eigenvalues --    0.60798   0.66288   0.66288   0.71155   0.71155
 Alpha virt. eigenvalues --    0.72959   0.73928   0.73928   0.77880   0.82788
 Alpha virt. eigenvalues --    0.85995   0.85995   0.87991   0.90910   0.98322
 Alpha virt. eigenvalues --    0.98322   0.99918   0.99918   1.02625   1.03744
 Alpha virt. eigenvalues --    1.11931   1.11931   1.15980   1.19474   1.19727
 Alpha virt. eigenvalues --    1.19727   1.20755   1.20755   1.28472   1.28472
 Alpha virt. eigenvalues --    1.37255   1.37362   1.37362   1.42286   1.42286
 Alpha virt. eigenvalues --    1.47515   1.49764   1.49764   1.52129   1.53016
 Alpha virt. eigenvalues --    1.57907   1.57907   1.64912   1.64912   1.66140
 Alpha virt. eigenvalues --    1.71453   1.71453   1.76682   1.78183   1.88019
 Alpha virt. eigenvalues --    1.88019   1.89949   1.93377   2.04700   2.04701
 Alpha virt. eigenvalues --    2.08857   2.08857   2.15345   2.18922   2.18923
 Alpha virt. eigenvalues --    2.24197   2.29972   2.29972   2.33428   2.46423
 Alpha virt. eigenvalues --    2.47214   2.47621   2.50296   2.50296   2.63419
 Alpha virt. eigenvalues --    2.63419   2.74610   2.74610   2.77258   2.77258
 Alpha virt. eigenvalues --    2.79584   2.79677   2.79677   2.84084   2.91268
 Alpha virt. eigenvalues --    2.91269   2.93300   2.93300   2.94957   2.99758
 Alpha virt. eigenvalues --    2.99758   3.00319   3.07283   3.07284   3.09138
 Alpha virt. eigenvalues --    3.12213   3.22108   3.22108   3.24735   3.25797
 Alpha virt. eigenvalues --    3.26566   3.31643   3.31643   3.36313   3.40918
 Alpha virt. eigenvalues --    3.40918   3.51113   3.54085   3.54086   3.56295
 Alpha virt. eigenvalues --    3.59362   3.59362   3.68212   3.70961   3.70961
 Alpha virt. eigenvalues --    3.71324   3.71324   3.87198   3.88343   3.89402
 Alpha virt. eigenvalues --    3.92678   3.92678   3.93508   3.98016   3.98016
 Alpha virt. eigenvalues --    4.11102   4.11103   4.15160   4.23233   4.23234
 Alpha virt. eigenvalues --    4.30244   4.30244   4.39057   4.39057   4.47787
 Alpha virt. eigenvalues --    4.49191   4.54799   4.54887   4.54887   4.59536
 Alpha virt. eigenvalues --    4.74683   4.78058   4.86050   4.86051   4.95357
 Alpha virt. eigenvalues --    4.95357   5.09335   5.09335   5.22133   5.22133
 Alpha virt. eigenvalues --    5.24909   5.24910   5.32870   5.36459   5.36459
 Alpha virt. eigenvalues --    5.44154   5.46864   5.46864   5.55307   5.67761
 Alpha virt. eigenvalues --    5.69973   5.89207   5.89207   5.90862   6.06227
 Alpha virt. eigenvalues --    6.06227   6.25996   6.26766   6.26766   6.28768
 Alpha virt. eigenvalues --    6.28769   6.58184   7.35516   7.57228   7.57229
 Alpha virt. eigenvalues --    7.86603   7.91520   7.91520   7.91710   7.92890
 Alpha virt. eigenvalues --    7.98063   8.00741   8.00741   8.01091   8.01091
 Alpha virt. eigenvalues --    8.02114   8.11061   8.14596   8.14596   8.21834
 Alpha virt. eigenvalues --    8.31242   8.31243   8.48798   8.48798   8.53222
 Alpha virt. eigenvalues --    8.53223   8.60891   8.69583   8.69583   8.82069
 Alpha virt. eigenvalues --    8.82070   8.85970   8.92314   8.92314   8.94333
 Alpha virt. eigenvalues --    9.05570   9.05570   9.06457   9.06458   9.06769
 Alpha virt. eigenvalues --    9.12451   9.12451   9.14588   9.21499   9.28095
 Alpha virt. eigenvalues --    9.28095   9.37777   9.37778   9.41182   9.44782
 Alpha virt. eigenvalues --    9.44782   9.45259   9.45259   9.46414   9.62545
 Alpha virt. eigenvalues --    9.62546   9.71770   9.82300   9.88279   9.88280
 Alpha virt. eigenvalues --    9.88771  10.00608  10.04734  10.29436  10.31065
 Alpha virt. eigenvalues --   10.50367  10.50367  10.51261  10.51261  10.63153
 Alpha virt. eigenvalues --   10.64876  10.65505  10.65505  10.84278  10.84278
 Alpha virt. eigenvalues --   10.84491  10.84492  10.88788  10.99114  10.99114
 Alpha virt. eigenvalues --   11.10260  11.11897  11.11897  11.20333  11.21262
 Alpha virt. eigenvalues --   11.21263  11.22869  11.24673  11.24673  11.32285
 Alpha virt. eigenvalues --   11.32285  11.38186  11.43918  11.47474  11.59356
 Alpha virt. eigenvalues --   11.59356  11.85969  11.85969  11.88495  12.04512
 Alpha virt. eigenvalues --   12.07156  12.17559  12.17560  12.19348  12.19348
 Alpha virt. eigenvalues --   12.28574  12.28575  12.30709  12.34640  12.64418
 Alpha virt. eigenvalues --   12.81729  12.81730  12.83704  12.83704  13.04698
 Alpha virt. eigenvalues --   13.04698  13.25316  13.25317  13.40191  13.40191
 Alpha virt. eigenvalues --   14.12980  14.56975  16.17019  17.11548  17.40316
 Alpha virt. eigenvalues --   17.40317  17.64875  17.64875  40.09246  40.41870
          Condensed to atoms (all electrons):
               1          2          3          4          5          6
     1  C    4.952416   0.369279   0.416305   0.416305   0.416305  -0.031715
     2  C    0.369279   4.952416  -0.031715  -0.031715  -0.031715   0.416305
     3  H    0.416305  -0.031715   0.505488  -0.023007  -0.023007  -0.004673
     4  H    0.416305  -0.031715  -0.023007   0.505488  -0.023007  -0.004673
     5  H    0.416305  -0.031715  -0.023007  -0.023007   0.505487   0.006795
     6  H   -0.031715   0.416305  -0.004673  -0.004673   0.006795   0.505487
     7  H   -0.031715   0.416305   0.006795  -0.004673  -0.004673  -0.023007
     8  H   -0.031715   0.416305  -0.004673   0.006795  -0.004673  -0.023007
               7          8
     1  C   -0.031715  -0.031715
     2  C    0.416305   0.416305
     3  H    0.006795  -0.004673
     4  H   -0.004673   0.006795
     5  H   -0.004673  -0.004673
     6  H   -0.023007  -0.023007
     7  H    0.505488  -0.023007
     8  H   -0.023007   0.505488
 Mulliken charges:
               1
     1  C   -0.475465
     2  C   -0.475465
     3  H    0.158488
     4  H    0.158488
     5  H    0.158488
     6  H    0.158488
     7  H    0.158488
     8  H    0.158488
 Sum of Mulliken charges =  -0.00000
 Mulliken charges with hydrogens summed into heavy atoms:
               1
     1  C    0.000000
     2  C   -0.000000
 Electronic spatial extent (au):  <R**2>=            110.2675
 Charge=             -0.0000 electrons
 Dipole moment (field-independent basis, Debye):
    X=              0.0000    Y=             -0.0000    Z=              0.0000  Tot=              0.0000
 Quadrupole moment (field-independent basis, Debye-Ang):
   XX=            -15.6755   YY=            -14.9498   ZZ=            -14.9498
   XY=             -0.0000   XZ=             -0.0000   YZ=              0.0000
 Traceless Quadrupole moment (field-independent basis, Debye-Ang):
   XX=             -0.4839   YY=              0.2419   ZZ=              0.2419
   XY=             -0.0000   XZ=             -0.0000   YZ=              0.0000
 Octapole moment (field-independent basis, Debye-Ang**2):
  XXX=             -0.0000  YYY=              0.0000  ZZZ=              0.0000  XYY=              0.0000
  XXY=             -0.0000  XXZ=              0.0000  XZZ=              0.0000  YZZ=             -0.0000
  YYZ=             -0.0000  XYZ=             -0.0000
 Hexadecapole moment (field-independent basis, Debye-Ang**3):
 XXXX=            -96.0101 YYYY=            -29.7581 ZZZZ=            -29.7581 XXXY=             -0.0000
 XXXZ=             -0.0000 YYYX=             -0.4382 YYYZ=             -0.0000 ZZZX=              1.3634
 ZZZY=              0.0000 XXYY=            -19.8964 XXZZ=            -19.8964 YYZZ=             -9.9194
 XXYZ=              0.0000 YYXZ=             -1.3634 ZZXY=              0.4382
 N-N= 4.214165604459D+01 E-N=-2.680671361685D+02  KE= 7.915323363104D+01
 No NMR shielding tensors so no spin-rotation constants.
 Leave Link  601 at Fri Aug 30 22:38:14 2019, MaxMem= 10737418240 cpu:               8.7 elap:               0.8
 (Enter /shared/centos7/gaussian/g16/l9999.exe)
 1\1\GINC-C0279\SP\RHF\GFHFB2\C2H6\FARINA.D\30-Aug-2019\0\\#P Geom=AllC
 heck Guess=TCheck SCRF=Check HF/GFHFB2 SCF=Tight\\Gaussian input prepa
 red by ASE\\0,1\C,0,-0.7650520675,0.0000017567,-0.0000024095\C,0,0.765
 0529026,-0.0000019895,0.0000031219\H,0,-1.1639098994,-0.4430796692,-0.
 9183201501\H,0,-1.1639132448,-0.5737454169,0.8428737282\H,0,-1.1639131
 458,1.0168275497,0.0754386425\H,0,1.1639141779,-1.0168274408,-0.075441
 8385\H,0,1.1639110675,0.4430756659,0.9183225821\H,0,1.1639142095,0.573
 7485441,-0.8428706767\\Version=EM64L-G16RevA.03\State=1-A\HF=-79.26601
 27\RMSD=1.085e-09\Dipole=0.,0.,0.\Quadrupole=-0.359732,0.17987,0.17986
 19,-0.0000064,0.0000013,0.0000055\PG=C01 [X(C2H6)]\\@


 ... IT IS NO ONE DREAME THAT
     CAN PLEASE THESE ALL ...

                -- BEN JONSON
 Diagonal vibrational polarizability:
        0.0000000       0.0000000       0.0000000
 
 Temperature=              298.150000 Pressure=                      1.000000
 E(ZPE)=                     0.073455 E(Thermal)=                    0.076958
 E(QCISD(T))=              -79.534465 E(Empiric)=                   -0.048629
 E(CCSD(T))=                -0.048629 E(Empiric)=                   -0.003249
 DE(Plus)=                  -0.095321 DE(2DF)=                      -0.121100
 E(Delta-G3XP)=             -0.008797 DE(HF)=                      -79.738106
 G4(0 K)=                  -79.734602 G4 Energy=                   -79.733658
 G4 Enthalpy=              -79.761231 G4 Free Energy=    
 1\1\GINC-C0279\Mixed\G4\G4\C2H6\FARINA.D\30-Aug-2019\0\\#p G4/\\Gaussi
 an input prepared by ASE\\0,1\C,0,-0.7650520675,0.0000017567,-0.000002
 4095\C,0,0.7650529026,-0.0000019895,0.0000031219\H,0,-1.1639098994,-0.
 4430796692,-0.9183201501\H,0,-1.1639132448,-0.5737454169,0.8428737282\
 H,0,-1.1639131458,1.0168275497,0.0754386425\H,0,1.1639141779,-1.016827
 4408,-0.0754418385\H,0,1.1639110675,0.4430756659,0.9183225821\H,0,1.16
 39142095,0.5737485441,-0.8428706767\\Version=EM64L-G16RevA.03\State=1-
 A\MP2/GTBas1=-79.4947085\MP4/GTBas1=-79.5328532\CCSD(T)/G3Bas1=-79.534
 4651\MP2/GTBas2=-79.4975832\MP4/GTBas2=-79.5361022\MP2/GTBas3=-79.5838
 205\MP4/GTBas3=-79.6281743\HF/GTLargeXP=-79.2575864\MP2/GTLargeXP=-79.
 7077949\HF/GFHFB1=-79.2644933\HF/GFHFB2=-79.2660127\G4=-79.7381057\Fre
 qCoord=-1.4457388785,0.0000033198,-0.0000045533,1.4457404568,-0.000003
 7596,0.0000058995,-2.1994709436,-0.8372992261,-1.7353735783,-2.1994772
 655,-1.0842217031,1.592800504,-2.1994770783,1.9215255848,0.1425583736,
 2.1994790287,-1.9215253791,-0.1425644132,2.1994731509,0.8372916611,1.7
 353781742,2.1994790884,1.0842276127,-1.5927947374\PG=C01 [X(C2H6)]\NIm
 ag=0\\0.46932510,0.00000264,0.56373740,0.00000715,-0.00000200,0.563725
 18,-0.19678367,0.00000111,-0.00000215,0.46932523,0.00000112,-0.0783295
 7,-0.00000042,0.00000265,0.56373728,-0.00000215,-0.00000048,-0.0783276
 6,0.00000717,-0.00000208,0.56372505,-0.07784865,-0.03675755,-0.0761826
 9,-0.01299882,-0.01435892,-0.02976000,0.08772674,-0.03725573,-0.091206
 57,-0.08969553,0.00028631,-0.00007346,0.00100165,0.04110518,0.09441413
 ,-0.07721628,-0.08969567,-0.23382765,0.00059297,0.00100169,0.00151916,
 0.08519354,0.09921963,0.25217970,-0.07784912,-0.04760235,0.06992497,-0
 .01299861,-0.01859443,0.02731521,0.00355030,0.00695696,-0.00845702,0.0
 8772992,-0.04824887,-0.12050366,0.10660999,0.00037025,0.00025376,-0.00
 119057,0.00563270,0.00739492,-0.01106740,0.05323222,0.12682150,0.07087
 344,0.10660910,-0.20455241,-0.00054410,-0.00119020,0.00119205,0.009390
 72,0.01529351,-0.02092596,-0.07819563,-0.11792997,0.21979501,-0.077849
 45,0.08435696,0.00625357,-0.01299680,0.03295253,0.00244393,0.00355025,
 -0.01094974,0.00018270,0.00355048,-0.01080222,-0.00179634,0.08772813,0
 .08550145,-0.27586665,-0.01691217,-0.00065717,0.00198874,0.00018908,0.
 00384509,-0.01201611,-0.00013901,0.00531679,-0.01567578,-0.00197337,-0
 .09433355,0.29868143,0.00633822,-0.01691143,-0.04918593,-0.00004925,0.
 00018898,-0.00054274,0.01025290,-0.02650013,-0.00151472,-0.00957369,0.
 02438743,0.00214444,-0.00699359,0.01870722,0.04793139,-0.01299679,0.03
 295252,0.00244400,-0.07784948,0.08435695,0.00625392,0.00154953,-0.0002
 4436,-0.00043979,0.00154645,-0.00030543,0.00039956,-0.00707859,-0.0006
 7419,-0.00005002,0.08772815,-0.00065717,0.00198874,0.00018909,0.085501
 43,-0.27586644,-0.01691304,0.00049872,0.00048924,0.00031630,0.00050286
 ,0.00060970,-0.00024678,-0.00067419,0.00178944,0.00005873,-0.09433354,
 0.29868122,-0.00004929,0.00018900,-0.00054274,0.00633859,-0.01691232,-
 0.04918605,0.00006563,0.00056116,0.00014333,0.00000979,-0.00049195,0.0
 0002246,-0.00005004,0.00005874,0.00100176,-0.00699393,0.01870820,0.047
 93154,-0.01299880,-0.01435885,-0.02976002,-0.07784870,-0.03675724,-0.0
 7618286,-0.00707871,0.00029377,0.00060878,0.00154936,-0.00025898,0.000
 43111,0.00154951,0.00049872,0.00006563,0.00355025,0.00384505,0.0102529
 1,0.08772678,0.00028628,-0.00007348,0.00100163,-0.03725539,-0.09120580
 ,-0.08969488,0.00029376,0.00114788,0.00031161,-0.00019241,-0.00015002,
 -0.00019191,-0.00024436,0.00048922,0.00056116,-0.01094974,-0.01201601,
 -0.02650018,0.04110487,0.09441331,0.00059299,0.00100168,0.00151918,-0.
 07721647,-0.08969505,-0.23382829,0.00060878,0.00031161,0.00164334,-0.0
 0046489,0.00005285,0.00078282,-0.00043979,0.00031629,0.00014332,0.0001
 8265,-0.00013906,-0.00151483,0.08519372,0.09921895,0.25218041,-0.01299
 861,-0.01859448,0.02731516,-0.07784915,-0.04760265,0.06992479,0.001549
 34,-0.00019241,-0.00046489,-0.00707878,0.00038033,-0.00055875,0.001546
 47,0.00050286,0.00000980,0.00355048,0.00531683,-0.00957367,0.00355031,
 0.00695700,-0.00845700,0.08772994,0.00037028,0.00025378,-0.00119059,-0
 .04824919,-0.12050451,0.10661033,-0.00025898,-0.00015003,0.00005286,0.
 00038035,0.00124958,-0.00037039,-0.00030543,0.00060971,-0.00049195,-0.
 01080222,-0.01567588,0.02438736,0.00563266,0.00739490,-0.01106728,0.05
 323253,0.12682243,-0.00054408,-0.00119020,0.00119203,0.07087324,0.1066
 0941,-0.20455152,0.00043111,-0.00019191,0.00078280,-0.00055874,-0.0003
 7038,0.00154158,0.00039956,-0.00024678,0.00002247,-0.00179639,-0.00197
 344,0.00214453,0.00939074,0.01529363,-0.02092595,-0.07819544,-0.117930
 33,0.21979404\\-0.00005569,0.00000099,-0.00000033,0.00005561,-0.000000
 98,0.00000029,0.00001667,-0.00000809,-0.00001655,0.00001700,-0.0000105
 7,0.00001530,0.00001597,0.00001829,0.00000163,-0.00001594,-0.00001829,
 -0.00000164,-0.00001663,0.00000805,0.00001657,-0.00001698,0.00001060,-
 0.00001528\\\@
 Job cpu time:       0 days  0 hours  5 minutes 37.4 seconds.
 Elapsed time:       0 days  0 hours  0 minutes 42.9 seconds.
 File lengths (MBytes):  RWF=    352 Int=      0 D2E=      0 Chk=     32 Scr=     32
 Normal termination of Gaussian 16 at Fri Aug 30 22:38:14 2019.
