 Entering Gaussian System, Link 0=g03
 Input=ethane_scan_1.com
 Output=ethane_scan_1.log
 Initial command:
 /home/g03/l1.exe /scratch/cfgold/Gau-19554.inp -scrdir=/scratch/cfgold/
 Entering Link 1 = /home/g03/l1.exe PID=     19556.
  
 Copyright (c) 1988,1990,1992,1993,1995,1998,2003,2004, Gaussian, Inc.
                  All Rights Reserved.
  
 This is the Gaussian(R) 03 program.  It is based on the
 the Gaussian(R) 98 system (copyright 1998, Gaussian, Inc.),
 the Gaussian(R) 94 system (copyright 1995, Gaussian, Inc.),
 the Gaussian 92(TM) system (copyright 1992, Gaussian, Inc.),
 the Gaussian 90(TM) system (copyright 1990, Gaussian, Inc.),
 the Gaussian 88(TM) system (copyright 1988, Gaussian, Inc.),
 the Gaussian 86(TM) system (copyright 1986, Carnegie Mellon
 University), and the Gaussian 82(TM) system (copyright 1983,
 Carnegie Mellon University). Gaussian is a federally registered
 trademark of Gaussian, Inc.
  
 This software contains proprietary and confidential information,
 including trade secrets, belonging to Gaussian, Inc.
  
 This software is provided under written license and may be
 used, copied, transmitted, or stored only in accord with that
 written license.
  
 The following legend is applicable only to US Government
 contracts under FAR:
  
                    RESTRICTED RIGHTS LEGEND
  
 Use, reproduction and disclosure by the US Government is
 subject to restrictions as set forth in subparagraphs (a)
 and (c) of the Commercial Computer Software - Restricted
 Rights clause in FAR 52.227-19.
  
 Gaussian, Inc.
 340 Quinnipiac St., Bldg. 40, Wallingford CT 06492
  
  
 ---------------------------------------------------------------
 Warning -- This program may not be used in any manner that
 competes with the business of Gaussian, Inc. or will provide
 assistance to any competitor of Gaussian, Inc.  The licensee
 of this program is prohibited from giving any competitor of
 Gaussian, Inc. access to this program.  By using this program,
 the user acknowledges that Gaussian, Inc. is engaged in the
 business of creating and licensing software in the field of
 computational chemistry and represents and warrants to the
 licensee that it is not a competitor of Gaussian, Inc. and that
 it will not use this program in any manner prohibited above.
 ---------------------------------------------------------------
  

 Cite this work as:
 Gaussian 03, Revision D.01,
 M. J. Frisch, G. W. Trucks, H. B. Schlegel, G. E. Scuseria, 
 M. A. Robb, J. R. Cheeseman, J. A. Montgomery, Jr., T. Vreven, 
 K. N. Kudin, J. C. Burant, J. M. Millam, S. S. Iyengar, J. Tomasi, 
 V. Barone, B. Mennucci, M. Cossi, G. Scalmani, N. Rega, 
 G. A. Petersson, H. Nakatsuji, M. Hada, M. Ehara, K. Toyota, 
 R. Fukuda, J. Hasegawa, M. Ishida, T. Nakajima, Y. Honda, O. Kitao, 
 H. Nakai, M. Klene, X. Li, J. E. Knox, H. P. Hratchian, J. B. Cross, 
 V. Bakken, C. Adamo, J. Jaramillo, R. Gomperts, R. E. Stratmann, 
 O. Yazyev, A. J. Austin, R. Cammi, C. Pomelli, J. W. Ochterski, 
 P. Y. Ayala, K. Morokuma, G. A. Voth, P. Salvador, J. J. Dannenberg, 
 V. G. Zakrzewski, S. Dapprich, A. D. Daniels, M. C. Strain, 
 O. Farkas, D. K. Malick, A. D. Rabuck, K. Raghavachari, 
 J. B. Foresman, J. V. Ortiz, Q. Cui, A. G. Baboul, S. Clifford, 
 J. Cioslowski, B. B. Stefanov, G. Liu, A. Liashenko, P. Piskorz, 
 I. Komaromi, R. L. Martin, D. J. Fox, T. Keith, M. A. Al-Laham, 
 C. Y. Peng, A. Nanayakkara, M. Challacombe, P. M. W. Gill, 
 B. Johnson, W. Chen, M. W. Wong, C. Gonzalez, and J. A. Pople, 
 Gaussian, Inc., Wallingford CT, 2004.
 
 ******************************************
 Gaussian 03:  AM64L-G03RevD.01 13-Oct-2005
                24-Mar-2010 
 ******************************************
 %chk=ethane_scan_1.chk
 %mem=800MB
 %nproc=8
 Will use up to    8 processors via shared memory.
 ---------------------------------------------------------------
 # opt=(calcfc,modredundant) freq ub3lyp/6-31+g(d,p) scfcyc=6000
 ---------------------------------------------------------------
 1/10=4,14=-1,18=120,26=3,38=1/1,3;
 2/9=110,17=6,18=5,40=1/2;
 3/5=1,6=6,7=111,11=2,16=1,25=1,30=1,74=-5/1,2,3;
 4/7=2/1;
 5/5=2,7=6000,38=5/2;
 8/6=4,10=90,11=11/1;
 11/6=1,8=1,9=11,15=111,16=1/1,2,10;
 10/6=1,7=6/2;
 6/7=2,8=2,9=2,10=2,28=1/1;
 7/10=1,18=20,25=1/1,2,3,16;
 1/10=4,14=-1,18=20/3(3);
 2/9=110/2;
 6/7=2,8=2,9=2,10=2,19=2,28=1/1;
 99//99;
 2/9=110/2;
 3/5=1,6=6,7=111,11=2,16=1,25=1,30=1,74=-5/1,2,3;
 4/5=5,7=2,16=3/1;
 5/5=2,7=6000,38=5/2;
 7//1,2,3,16;
 1/14=-1,18=20/3(-5);
 2/9=110/2;
 6/7=2,8=2,9=2,10=2,19=2,28=1/1;
 99/9=1/99;
 -------------------
 Title Card Required
 -------------------
 Symbolic Z-matrix:
 Charge =  0 Multiplicity = 1
 C
 H                    1    B1
 H                    1    B2       2    A1
 H                    1    B3       2    A2       3    D1       0
 C                    1    B4       2    A3       3    D2       0
 H                    5    B5       1    A4       2    D3       0
 H                    5    B6       1    A5       2    D4       0
 H                    5    B7       1    A6       2    D5       0
       Variables:
  B1                    1.09074                  
  B2                    1.09076                  
  B3                    1.09075                  
  B4                    1.52753                  
  B5                    1.09074                  
  B6                    1.09075                  
  B7                    1.09076                  
  A1                  107.49399                  
  A2                  107.49686                  
  A3                  111.38277                  
  A4                  111.38277                  
  A5                  111.38174                  
  A6                  111.37941                  
  D1                 -115.45848                  
  D2                  122.26836                  
  D3                  180.                       
  D4                  -59.99684                  
  D5                   60.00206                  
 
 The following ModRedundant input section has been read:
 D    2    1    5    6 S  36 10.000                                            

 GradGradGradGradGradGradGradGradGradGradGradGradGradGradGradGradGradGrad
 Berny optimization.
 Initialization pass.
                           ----------------------------
                           !    Initial Parameters    !
                           ! (Angstroms and Degrees)  !
 --------------------------                            --------------------------
 ! Name  Definition              Value          Derivative Info.                !
 --------------------------------------------------------------------------------
 ! R1    R(1,2)                  1.0907         calculate D2E/DX2 analytically  !
 ! R2    R(1,3)                  1.0908         calculate D2E/DX2 analytically  !
 ! R3    R(1,4)                  1.0907         calculate D2E/DX2 analytically  !
 ! R4    R(1,5)                  1.5275         calculate D2E/DX2 analytically  !
 ! R5    R(5,6)                  1.0907         calculate D2E/DX2 analytically  !
 ! R6    R(5,7)                  1.0907         calculate D2E/DX2 analytically  !
 ! R7    R(5,8)                  1.0908         calculate D2E/DX2 analytically  !
 ! A1    A(2,1,3)              107.494          calculate D2E/DX2 analytically  !
 ! A2    A(2,1,4)              107.4969         calculate D2E/DX2 analytically  !
 ! A3    A(2,1,5)              111.3828         calculate D2E/DX2 analytically  !
 ! A4    A(3,1,4)              107.4954         calculate D2E/DX2 analytically  !
 ! A5    A(3,1,5)              111.3794         calculate D2E/DX2 analytically  !
 ! A6    A(4,1,5)              111.3818         calculate D2E/DX2 analytically  !
 ! A7    A(1,5,6)              111.3828         calculate D2E/DX2 analytically  !
 ! A8    A(1,5,7)              111.3817         calculate D2E/DX2 analytically  !
 ! A9    A(1,5,8)              111.3794         calculate D2E/DX2 analytically  !
 ! A10   A(6,5,7)              107.4969         calculate D2E/DX2 analytically  !
 ! A11   A(6,5,8)              107.494          calculate D2E/DX2 analytically  !
 ! A12   A(7,5,8)              107.4954         calculate D2E/DX2 analytically  !
 ! D1    D(2,1,5,6)            180.0            Scan                            !
 ! D2    D(2,1,5,7)            -59.9968         calculate D2E/DX2 analytically  !
 ! D3    D(2,1,5,8)             60.0021         calculate D2E/DX2 analytically  !
 ! D4    D(3,1,5,6)            -60.0021         calculate D2E/DX2 analytically  !
 ! D5    D(3,1,5,7)             60.001          calculate D2E/DX2 analytically  !
 ! D6    D(3,1,5,8)            180.0            calculate D2E/DX2 analytically  !
 ! D7    D(4,1,5,6)             59.9969         calculate D2E/DX2 analytically  !
 ! D8    D(4,1,5,7)           -180.0            calculate D2E/DX2 analytically  !
 ! D9    D(4,1,5,8)            -60.001          calculate D2E/DX2 analytically  !
 --------------------------------------------------------------------------------
 Trust Radius=3.00D-01 FncErr=1.00D-07 GrdErr=1.00D-06
 Number of optimizations in scan=  37
 Number of steps in this run=  38 maximum allowed number of steps= 100.
 GradGradGradGradGradGradGradGradGradGradGradGradGradGradGradGradGradGrad

                          Input orientation:                          
 ---------------------------------------------------------------------
 Center     Atomic     Atomic              Coordinates (Angstroms)
 Number     Number      Type              X           Y           Z
 ---------------------------------------------------------------------
    1          6             0        0.000000    0.000000    0.000000
    2          1             0        0.000000    0.000000    1.090744
    3          1             0        1.040306    0.000000   -0.327887
    4          1             0       -0.447173    0.939269   -0.327937
    5          6             0       -0.759388   -1.202703   -0.556931
    6          1             0       -0.759388   -1.202703   -1.647676
    7          1             0       -0.312215   -2.141972   -0.228993
    8          1             0       -1.799694   -1.202703   -0.229043
 ---------------------------------------------------------------------
                    Distance matrix (angstroms):
                    1          2          3          4          5
     1  C    0.000000
     2  H    1.090744   0.000000
     3  H    1.090755   1.759191   0.000000
     4  H    1.090749   1.759218   1.759210   0.000000
     5  C    1.527527   2.176695   2.176662   2.176686   0.000000
     6  H    2.176695   3.085791   2.535199   2.535199   1.090744
     7  H    2.176686   2.535198   2.535180   3.085782   1.090749
     8  H    2.176662   2.535199   3.085752   2.535180   1.090755
                    6          7          8
     6  H    0.000000
     7  H    1.759219   0.000000
     8  H    1.759191   1.759210   0.000000
 Stoichiometry    C2H6
 Framework group  CI[X(C2H6)]
 Deg. of freedom     9
 Full point group                 CI
 Largest Abelian subgroup         CI      NOp   2
 Largest concise Abelian subgroup CI      NOp   2
                         Standard orientation:                         
 ---------------------------------------------------------------------
 Center     Atomic     Atomic              Coordinates (Angstroms)
 Number     Number      Type              X           Y           Z
 ---------------------------------------------------------------------
    1          6             0        0.379694    0.601352    0.278466
    2          1             0        0.379694    0.601352    1.369210
    3          1             0        1.420000    0.601352   -0.049422
    4          1             0       -0.067479    1.540620   -0.049472
    5          6             0       -0.379694   -0.601352   -0.278466
    6          1             0       -0.379694   -0.601352   -1.369210
    7          1             0        0.067479   -1.540620    0.049472
    8          1             0       -1.420000   -0.601352    0.049422
 ---------------------------------------------------------------------
 Rotational constants (GHZ):     81.0155876     19.9946404     19.9945498
 Standard basis: 6-31+G(d,p) (6D, 7F)
 There are    34 symmetry adapted basis functions of AG  symmetry.
 There are    34 symmetry adapted basis functions of AU  symmetry.
 Integral buffers will be    131072 words long.
 Raffenetti 2 integral format.
 Two-electron integral symmetry is turned on.
    68 basis functions,   106 primitive gaussians,    68 cartesian basis functions
     9 alpha electrons        9 beta electrons
       nuclear repulsion energy        42.2605170210 Hartrees.
 NAtoms=    8 NActive=    8 NUniq=    4 SFac= 3.00D+00 NAtFMM=   80 NAOKFM=F Big=F
 One-electron integrals computed using PRISM.
 NBasis=    68 RedAO= T  NBF=    34    34
 NBsUse=    68 1.00D-06 NBFU=    34    34
 Harris functional with IExCor=  402 diagonalized for initial guess.
 ExpMin= 4.38D-02 ExpMax= 3.05D+03 ExpMxC= 4.57D+02 IAcc=2 IRadAn=         4 AccDes= 0.00D+00
 HarFok:  IExCor= 402 AccDes= 0.00D+00 IRadAn=         4 IDoV=1
 ScaDFX=  1.000000  1.000000  1.000000  1.000000
 Initial guess orbital symmetries:
 Alpha Orbitals:
       Occupied  (AG) (AU) (AG) (AU) (AU) (AU) (AG) (AG) (AG)
       Virtual   (AG) (AU) (AU) (AU) (AG) (AG) (AG) (AU) (AU) (AU)
                 (AG) (AG) (AU) (AG) (AU) (AG) (AU) (AU) (AG) (AG)
                 (AU) (AU) (AU) (AG) (AG) (AG) (AU) (AG) (AU) (AU)
                 (AU) (AG) (AG) (AG) (AU) (AG) (AU) (AU) (AG) (AG)
                 (AU) (AU) (AU) (AG) (AG) (AG) (AU) (AU) (AU) (AG)
                 (AG) (AG) (AU) (AG) (AG) (AU) (AU) (AG) (AU)
 Beta  Orbitals:
       Occupied  (AG) (AU) (AG) (AU) (AU) (AU) (AG) (AG) (AG)
       Virtual   (AG) (AU) (AU) (AU) (AG) (AG) (AG) (AU) (AU) (AU)
                 (AG) (AG) (AU) (AG) (AU) (AG) (AU) (AU) (AG) (AG)
                 (AU) (AU) (AU) (AG) (AG) (AG) (AU) (AG) (AU) (AU)
                 (AU) (AG) (AG) (AG) (AU) (AG) (AU) (AU) (AG) (AG)
                 (AU) (AU) (AU) (AG) (AG) (AG) (AU) (AU) (AU) (AG)
                 (AG) (AG) (AU) (AG) (AG) (AU) (AU) (AG) (AU)
 The electronic state of the initial guess is 1-AG.
 <S**2> of initial guess= 0.0000
 Requested convergence on RMS density matrix=1.00D-08 within6000 cycles.
 Requested convergence on MAX density matrix=1.00D-06.
 Requested convergence on             energy=1.00D-06.
 No special actions if energy rises.
 Keep R1 and R2 integrals in memory in canonical form, NReq=    43330812.
 SCF Done:  E(UB+HF-LYP) =  -79.8415416225     A.U. after    7 cycles
             Convg  =    0.9377D-08             -V/T =  2.0104
             S**2   =   0.0000
 Annihilation of the first spin contaminant:
 S**2 before annihilation     0.0000,   after     0.0000
 Range of M.O.s used for correlation:     1    68
 NBasis=    68 NAE=     9 NBE=     9 NFC=     0 NFV=     0
 NROrb=     68 NOA=     9 NOB=     9 NVA=    59 NVB=    59

 **** Warning!!: The largest alpha MO coefficient is  0.26275507D+02


 **** Warning!!: The largest beta MO coefficient is  0.26275507D+02

 Symmetrizing basis deriv contribution to polar:
 IMax=3 JMax=2 DiffMx= 0.00D+00
 G2DrvN: will do    9 centers at a time, making    1 passes doing MaxLOS=2.
 FoFDir/FoFCou used for L=0 through L=2.
 DoAtom=TTTTTTTT
          Differentiating once with respect to electric field.
                with respect to dipole field.
          Differentiating once with respect to nuclear coordinates.
          Store integrals in memory, NReq=     6328566.
          There are  15 degrees of freedom in the 1st order CPHF.
    15 vectors were produced by pass  0.
 AX will form  15 AO Fock derivatives at one time.
    15 vectors were produced by pass  1.
    15 vectors were produced by pass  2.
    14 vectors were produced by pass  3.
     6 vectors were produced by pass  4.
     3 vectors were produced by pass  5.
 Inv2:  IOpt= 1 Iter= 1 AM= 1.33D-15 Conv= 1.00D-12.
 Inverted reduced A of dimension   68 with in-core refinement.
 Isotropic polarizability for W=    0.000000       25.28 Bohr**3.
 End of Minotr Frequency-dependent properties file   721 does not exist.

 **********************************************************************

            Population analysis using the SCF density.

 **********************************************************************

 Orbital symmetries:
 Alpha Orbitals:
       Occupied  (AG) (AU) (AG) (AU) (AU) (AU) (AG) (AG) (AG)
       Virtual   (AG) (AU) (AU) (AU) (AG) (AG) (AG) (AU) (AG) (AG)
                 (AU) (AU) (AU) (AG) (AU) (AG) (AU) (AU) (AG) (AG)
                 (AU) (AU) (AU) (AG) (AG) (AG) (AU) (AG) (AU) (AU)
                 (AU) (AG) (AG) (AG) (AU) (AG) (AU) (AU) (AG) (AG)
                 (AU) (AU) (AU) (AG) (AG) (AG) (AU) (AU) (AU) (AG)
                 (AG) (AG) (AU) (AG) (AG) (AU) (AU) (AG) (AU)
 Beta  Orbitals:
       Occupied  (AG) (AU) (AG) (AU) (AU) (AU) (AG) (AG) (AG)
       Virtual   (AG) (AU) (AU) (AU) (AG) (AG) (AG) (AU) (AG) (AG)
                 (AU) (AU) (AU) (AG) (AU) (AG) (AU) (AU) (AG) (AG)
                 (AU) (AU) (AU) (AG) (AG) (AG) (AU) (AG) (AU) (AU)
                 (AU) (AG) (AG) (AG) (AU) (AG) (AU) (AU) (AG) (AG)
                 (AU) (AU) (AU) (AG) (AG) (AG) (AU) (AU) (AU) (AG)
                 (AG) (AG) (AU) (AG) (AG) (AU) (AU) (AG) (AU)
 The electronic state is 1-AG.
 Alpha  occ. eigenvalues --  -10.17604 -10.17582  -0.75466  -0.61835  -0.43581
 Alpha  occ. eigenvalues --   -0.43580  -0.36935  -0.34479  -0.34478
 Alpha virt. eigenvalues --    0.01769   0.03055   0.05376   0.05377   0.08062
 Alpha virt. eigenvalues --    0.08980   0.08980   0.14323   0.19707   0.19709
 Alpha virt. eigenvalues --    0.19979   0.19979   0.25705   0.29909   0.32917
 Alpha virt. eigenvalues --    0.61829   0.64226   0.64227   0.67024   0.67024
 Alpha virt. eigenvalues --    0.69843   0.91685   0.91685   0.96908   0.96910
 Alpha virt. eigenvalues --    1.00618   1.10485   1.11366   1.32422   1.32423
 Alpha virt. eigenvalues --    1.46216   1.67396   1.67398   1.89609   2.05440
 Alpha virt. eigenvalues --    2.05487   2.10830   2.10831   2.12010   2.12011
 Alpha virt. eigenvalues --    2.26803   2.26803   2.38286   2.47932   2.47937
 Alpha virt. eigenvalues --    2.70010   2.79674   2.80669   2.80672   2.91061
 Alpha virt. eigenvalues --    2.91064   3.22516   3.27290   3.40133   3.40137
 Alpha virt. eigenvalues --    3.52816   3.52817   4.33176   4.58392
  Beta  occ. eigenvalues --  -10.17604 -10.17582  -0.75466  -0.61835  -0.43581
  Beta  occ. eigenvalues --   -0.43580  -0.36935  -0.34479  -0.34478
  Beta virt. eigenvalues --    0.01769   0.03055   0.05376   0.05377   0.08062
  Beta virt. eigenvalues --    0.08980   0.08980   0.14323   0.19707   0.19709
  Beta virt. eigenvalues --    0.19979   0.19979   0.25705   0.29909   0.32917
  Beta virt. eigenvalues --    0.61829   0.64226   0.64227   0.67024   0.67024
  Beta virt. eigenvalues --    0.69843   0.91685   0.91685   0.96908   0.96910
  Beta virt. eigenvalues --    1.00618   1.10485   1.11366   1.32422   1.32423
  Beta virt. eigenvalues --    1.46216   1.67396   1.67398   1.89609   2.05440
  Beta virt. eigenvalues --    2.05487   2.10830   2.10831   2.12010   2.12011
  Beta virt. eigenvalues --    2.26803   2.26803   2.38286   2.47932   2.47937
  Beta virt. eigenvalues --    2.70010   2.79674   2.80669   2.80672   2.91061
  Beta virt. eigenvalues --    2.91064   3.22516   3.27290   3.40133   3.40137
  Beta virt. eigenvalues --    3.52816   3.52817   4.33176   4.58392
          Condensed to atoms (all electrons):
              1          2          3          4          5          6
     1  C    5.083904   0.405314   0.405316   0.405298   0.269380  -0.044822
     2  H    0.405314   0.558146  -0.029879  -0.029874  -0.044822   0.004595
     3  H    0.405316  -0.029879   0.558153  -0.029875  -0.044828  -0.004200
     4  H    0.405298  -0.029874  -0.029875   0.558153  -0.044813  -0.004199
     5  C    0.269380  -0.044822  -0.044828  -0.044813   5.083904   0.405314
     6  H   -0.044822   0.004595  -0.004200  -0.004199   0.405314   0.558146
     7  H   -0.044813  -0.004199  -0.004199   0.004596   0.405298  -0.029874
     8  H   -0.044828  -0.004200   0.004596  -0.004199   0.405316  -0.029879
              7          8
     1  C   -0.044813  -0.044828
     2  H   -0.004199  -0.004200
     3  H   -0.004199   0.004596
     4  H    0.004596  -0.004199
     5  C    0.405298   0.405316
     6  H   -0.029874  -0.029879
     7  H    0.558153  -0.029875
     8  H   -0.029875   0.558153
 Mulliken atomic charges:
              1
     1  C   -0.434748
     2  H    0.144918
     3  H    0.144916
     4  H    0.144914
     5  C   -0.434748
     6  H    0.144918
     7  H    0.144914
     8  H    0.144916
 Sum of Mulliken charges=   0.00000
 Atomic charges with hydrogens summed into heavy atoms:
              1
     1  C    0.000000
     2  H    0.000000
     3  H    0.000000
     4  H    0.000000
     5  C    0.000000
     6  H    0.000000
     7  H    0.000000
     8  H    0.000000
 Sum of Mulliken charges=   0.00000
          Atomic-Atomic Spin Densities.
              1          2          3          4          5          6
     1  C    0.000000   0.000000   0.000000   0.000000   0.000000   0.000000
     2  H    0.000000   0.000000   0.000000   0.000000   0.000000   0.000000
     3  H    0.000000   0.000000   0.000000   0.000000   0.000000   0.000000
     4  H    0.000000   0.000000   0.000000   0.000000   0.000000   0.000000
     5  C    0.000000   0.000000   0.000000   0.000000   0.000000   0.000000
     6  H    0.000000   0.000000   0.000000   0.000000   0.000000   0.000000
     7  H    0.000000   0.000000   0.000000   0.000000   0.000000   0.000000
     8  H    0.000000   0.000000   0.000000   0.000000   0.000000   0.000000
              7          8
     1  C    0.000000   0.000000
     2  H    0.000000   0.000000
     3  H    0.000000   0.000000
     4  H    0.000000   0.000000
     5  C    0.000000   0.000000
     6  H    0.000000   0.000000
     7  H    0.000000   0.000000
     8  H    0.000000   0.000000
 Mulliken atomic spin densities:
              1
     1  C    0.000000
     2  H    0.000000
     3  H    0.000000
     4  H    0.000000
     5  C    0.000000
     6  H    0.000000
     7  H    0.000000
     8  H    0.000000
 Sum of Mulliken spin densities=   0.00000
 APT atomic charges:
              1
     1  C    0.091513
     2  H   -0.030506
     3  H   -0.030502
     4  H   -0.030505
     5  C    0.091513
     6  H   -0.030506
     7  H   -0.030505
     8  H   -0.030502
 Sum of APT charges=   0.00000
 APT Atomic charges with hydrogens summed into heavy atoms:
              1
     1  C    0.000000
     2  H    0.000000
     3  H    0.000000
     4  H    0.000000
     5  C    0.000000
     6  H    0.000000
     7  H    0.000000
     8  H    0.000000
 Sum of APT charges=   0.00000
 Electronic spatial extent (au):  <R**2>=   110.0814
 Charge=     0.0000 electrons
 Dipole moment (field-independent basis, Debye):
    X=     0.0000    Y=     0.0000    Z=     0.0000  Tot=     0.0000
 Quadrupole moment (field-independent basis, Debye-Ang):
   XX=   -15.2204   YY=   -15.4733   ZZ=   -15.1427
   XY=    -0.2657   XZ=    -0.1229   YZ=    -0.1948
 Traceless Quadrupole moment (field-independent basis, Debye-Ang):
   XX=     0.0584   YY=    -0.1945   ZZ=     0.1361
   XY=    -0.2657   XZ=    -0.1229   YZ=    -0.1948
 Octapole moment (field-independent basis, Debye-Ang**2):
  XXX=     0.0000  YYY=     0.0000  ZZZ=     0.0000  XYY=     0.0000
  XXY=     0.0000  XXZ=     0.0000  XZZ=     0.0000  YZZ=     0.0000
  YYZ=     0.0000  XYZ=     0.0000
 Hexadecapole moment (field-independent basis, Debye-Ang**3):
 XXXX=   -45.5735 YYYY=   -70.3711 ZZZZ=   -37.8820 XXXY=   -12.0725
 XXXZ=    -6.7917 YYYX=   -13.9673 YYYZ=   -10.2432 ZZZX=    -5.4119
 ZZZY=    -8.5711 XXYY=   -20.3501 XXZZ=   -15.2234 YYZZ=   -19.2178
 XXYZ=    -3.3584 YYXZ=    -1.7964 ZZXY=    -4.1943
 N-N= 4.226051702099D+01 E-N=-2.682902980523D+02  KE= 7.901679486316D+01
 Symmetry AG   KE= 4.102590829180D+01
 Symmetry AU   KE= 3.799088657136D+01
  Exact polarizability:  25.037   1.086  26.071   0.503   0.797  24.720
 Approx polarizability:  31.303  -0.161  31.149  -0.075  -0.118  31.350
                          Isotropic Fermi Contact Couplings
        Atom                 a.u.       MegaHertz       Gauss      10(-4) cm-1
     1  C(13)              0.00000       0.00000       0.00000       0.00000
     2  H(1)               0.00000       0.00000       0.00000       0.00000
     3  H(1)               0.00000       0.00000       0.00000       0.00000
     4  H(1)               0.00000       0.00000       0.00000       0.00000
     5  C(13)              0.00000       0.00000       0.00000       0.00000
     6  H(1)               0.00000       0.00000       0.00000       0.00000
     7  H(1)               0.00000       0.00000       0.00000       0.00000
     8  H(1)               0.00000       0.00000       0.00000       0.00000
 --------------------------------------------------------
       Center         ----  Spin Dipole Couplings  ----
                      3XX-RR        3YY-RR        3ZZ-RR
 --------------------------------------------------------
     1   Atom        0.000000      0.000000      0.000000
     2   Atom        0.000000      0.000000      0.000000
     3   Atom        0.000000      0.000000      0.000000
     4   Atom        0.000000      0.000000      0.000000
     5   Atom        0.000000      0.000000      0.000000
     6   Atom        0.000000      0.000000      0.000000
     7   Atom        0.000000      0.000000      0.000000
     8   Atom        0.000000      0.000000      0.000000
 --------------------------------------------------------
                        XY            XZ            YZ
 --------------------------------------------------------
     1   Atom        0.000000      0.000000      0.000000
     2   Atom        0.000000      0.000000      0.000000
     3   Atom        0.000000      0.000000      0.000000
     4   Atom        0.000000      0.000000      0.000000
     5   Atom        0.000000      0.000000      0.000000
     6   Atom        0.000000      0.000000      0.000000
     7   Atom        0.000000      0.000000      0.000000
     8   Atom        0.000000      0.000000      0.000000
 --------------------------------------------------------


 ---------------------------------------------------------------------------------
              Anisotropic Spin Dipole Couplings in Principal Axis System
 ---------------------------------------------------------------------------------

       Atom             a.u.   MegaHertz   Gauss  10(-4) cm-1        Axes

              Baa     0.0000     0.000     0.000     0.000  1.0000  0.0000  0.0000
     1 C(13)  Bbb     0.0000     0.000     0.000     0.000  0.0000  1.0000  0.0000
              Bcc     0.0000     0.000     0.000     0.000  0.0000  0.0000  1.0000
 
              Baa     0.0000     0.000     0.000     0.000  1.0000  0.0000  0.0000
     2 H(1)   Bbb     0.0000     0.000     0.000     0.000  0.0000  1.0000  0.0000
              Bcc     0.0000     0.000     0.000     0.000  0.0000  0.0000  1.0000
 
              Baa     0.0000     0.000     0.000     0.000  1.0000  0.0000  0.0000
     3 H(1)   Bbb     0.0000     0.000     0.000     0.000  0.0000  1.0000  0.0000
              Bcc     0.0000     0.000     0.000     0.000  0.0000  0.0000  1.0000
 
              Baa     0.0000     0.000     0.000     0.000  1.0000  0.0000  0.0000
     4 H(1)   Bbb     0.0000     0.000     0.000     0.000  0.0000  1.0000  0.0000
              Bcc     0.0000     0.000     0.000     0.000  0.0000  0.0000  1.0000
 
              Baa     0.0000     0.000     0.000     0.000  1.0000  0.0000  0.0000
     5 C(13)  Bbb     0.0000     0.000     0.000     0.000  0.0000  1.0000  0.0000
              Bcc     0.0000     0.000     0.000     0.000  0.0000  0.0000  1.0000
 
              Baa     0.0000     0.000     0.000     0.000  1.0000  0.0000  0.0000
     6 H(1)   Bbb     0.0000     0.000     0.000     0.000  0.0000  1.0000  0.0000
              Bcc     0.0000     0.000     0.000     0.000  0.0000  0.0000  1.0000
 
              Baa     0.0000     0.000     0.000     0.000  1.0000  0.0000  0.0000
     7 H(1)   Bbb     0.0000     0.000     0.000     0.000  0.0000  1.0000  0.0000
              Bcc     0.0000     0.000     0.000     0.000  0.0000  0.0000  1.0000
 
              Baa     0.0000     0.000     0.000     0.000  1.0000  0.0000  0.0000
     8 H(1)   Bbb     0.0000     0.000     0.000     0.000  0.0000  1.0000  0.0000
              Bcc     0.0000     0.000     0.000     0.000  0.0000  0.0000  1.0000
 

 ---------------------------------------------------------------------------------

 ***** Axes restored to original set *****
 -------------------------------------------------------------------
 Center     Atomic                   Forces (Hartrees/Bohr)
 Number     Number              X              Y              Z
 -------------------------------------------------------------------
    1          6          -0.000398559   -0.000633356   -0.000294843
    2          1          -0.000010030   -0.000022041    0.003258226
    3          1           0.003102705   -0.000018765   -0.000990271
    4          1          -0.001350740    0.002792505   -0.000987630
    5          6           0.000398559    0.000633356    0.000294843
    6          1           0.000010030    0.000022041   -0.003258226
    7          1           0.001350740   -0.002792505    0.000987630
    8          1          -0.003102705    0.000018765    0.000990271
 -------------------------------------------------------------------
 Cartesian Forces:  Max     0.003258226 RMS     0.001644924

 GradGradGradGradGradGradGradGradGradGradGradGradGradGradGradGradGradGrad
 Berny optimization.
 Internal  Forces:  Max     0.003257567 RMS     0.001591393
 Search for a local minimum.
 Step number   1 out of a maximum of  38 on scan point     1 out of    37
 All quantities printed in internal units (Hartrees-Bohrs-Radians)
 Second derivative matrix not updated -- analytic derivatives used.
     Eigenvalues ---    0.01391   0.04529   0.04729   0.04731   0.12097
     Eigenvalues ---    0.12335   0.12351   0.12491   0.17710   0.17716
     Eigenvalues ---    0.30808   0.34265   0.34270   0.34478   0.34511
     Eigenvalues ---    0.35275   0.354721000.000001000.000001000.00000
     Eigenvalues --- 1000.000001000.000001000.000001000.000001000.00000
     Eigenvalues --- 1000.000001000.000001000.00000
 RFO step:  Lambda=-2.00793393D-04.
 Linear search not attempted -- first point.
 Iteration  1 RMS(Cart)=  0.00523731 RMS(Int)=  0.00000160
 Iteration  2 RMS(Cart)=  0.00000227 RMS(Int)=  0.00000008
 Iteration  3 RMS(Cart)=  0.00000000 RMS(Int)=  0.00000008
 Iteration  1 RMS(Cart)=  0.00000000 RMS(Int)=  0.00000000
 Variable       Old X    -DE/DX   Delta X   Delta X   Delta X     New X
                                 (Linear)    (Quad)   (Total)
    R1        2.06121   0.00326   0.00000   0.00909   0.00909   2.07030
    R2        2.06123   0.00326   0.00000   0.00909   0.00909   2.07032
    R3        2.06122   0.00326   0.00000   0.00909   0.00909   2.07031
    R4        2.88661   0.00270   0.00000   0.00854   0.00854   2.89515
    R5        2.06121   0.00326   0.00000   0.00909   0.00909   2.07030
    R6        2.06122   0.00326   0.00000   0.00909   0.00909   2.07031
    R7        2.06123   0.00326   0.00000   0.00909   0.00909   2.07032
    A1        1.87612   0.00002   0.00000   0.00054   0.00054   1.87666
    A2        1.87617   0.00002   0.00000   0.00055   0.00055   1.87672
    A3        1.94400  -0.00002   0.00000  -0.00051  -0.00051   1.94348
    A4        1.87615   0.00002   0.00000   0.00055   0.00055   1.87670
    A5        1.94394  -0.00002   0.00000  -0.00050  -0.00050   1.94344
    A6        1.94398  -0.00002   0.00000  -0.00051  -0.00051   1.94347
    A7        1.94400  -0.00002   0.00000  -0.00051  -0.00051   1.94348
    A8        1.94398  -0.00002   0.00000  -0.00051  -0.00051   1.94347
    A9        1.94394  -0.00002   0.00000  -0.00050  -0.00050   1.94344
   A10        1.87617   0.00002   0.00000   0.00055   0.00055   1.87672
   A11        1.87612   0.00002   0.00000   0.00054   0.00054   1.87666
   A12        1.87615   0.00002   0.00000   0.00055   0.00055   1.87670
    D1        3.14159   0.00000   0.00000   0.00000   0.00000   3.14159
    D2       -1.04714   0.00000   0.00000   0.00000   0.00000  -1.04715
    D3        1.04723   0.00000   0.00000   0.00001   0.00001   1.04724
    D4       -1.04723   0.00000   0.00000  -0.00001  -0.00001  -1.04724
    D5        1.04721   0.00000   0.00000  -0.00001  -0.00001   1.04721
    D6        3.14159   0.00000   0.00000   0.00000   0.00000  -3.14159
    D7        1.04714   0.00000   0.00000   0.00000   0.00000   1.04715
    D8        3.14159   0.00000   0.00000   0.00000   0.00000   3.14159
    D9       -1.04721   0.00000   0.00000   0.00001   0.00001  -1.04721
         Item               Value     Threshold  Converged?
 Maximum Force            0.003258     0.000450     NO 
 RMS     Force            0.001621     0.000300     NO 
 Maximum Displacement     0.010649     0.001800     NO 
 RMS     Displacement     0.005237     0.001200     NO 
 Predicted change in Energy=-1.004542D-04
 GradGradGradGradGradGradGradGradGradGradGradGradGradGradGradGradGradGrad

                          Input orientation:                          
 ---------------------------------------------------------------------
 Center     Atomic     Atomic              Coordinates (Angstroms)
 Number     Number      Type              X           Y           Z
 ---------------------------------------------------------------------
    1          6             0        0.001125    0.001779    0.000822
    2          1             0        0.000828    0.001305    1.096377
    3          1             0        1.045931    0.001310   -0.328790
    4          1             0       -0.448411    0.944904   -0.328846
    5          6             0       -0.760513   -1.204482   -0.557753
    6          1             0       -0.760216   -1.204008   -1.653308
    7          1             0       -0.310978   -2.147607   -0.228085
    8          1             0       -1.805319   -1.204013   -0.228141
 ---------------------------------------------------------------------
                    Distance matrix (angstroms):
                    1          2          3          4          5
     1  C    0.000000
     2  H    1.095556   0.000000
     3  H    1.095566   1.767298   0.000000
     4  H    1.095558   1.767330   1.767322   0.000000
     5  C    1.532045   2.183966   2.183941   2.183957   0.000000
     6  H    2.183966   3.097214   2.543483   2.543471   1.095556
     7  H    2.183957   2.543471   2.543460   3.097203   1.095558
     8  H    2.183941   2.543483   3.097186   2.543460   1.095566
                    6          7          8
     6  H    0.000000
     7  H    1.767330   0.000000
     8  H    1.767298   1.767322   0.000000
 Stoichiometry    C2H6
 Framework group  CI[X(C2H6)]
 Deg. of freedom     9
 Full point group                 CI
 Largest Abelian subgroup         CI      NOp   2
 Largest concise Abelian subgroup CI      NOp   2
                         Standard orientation:                         
 ---------------------------------------------------------------------
 Center     Atomic     Atomic              Coordinates (Angstroms)
 Number     Number      Type              X           Y           Z
 ---------------------------------------------------------------------
    1          6             0        0.380819    0.603130    0.279287
    2          1             0        0.380522    0.602657    1.374843
    3          1             0        1.425625    0.602661   -0.050325
    4          1             0       -0.068716    1.546256   -0.050380
    5          6             0       -0.380819   -0.603130   -0.279287
    6          1             0       -0.380522   -0.602657   -1.374843
    7          1             0        0.068716   -1.546256    0.050380
    8          1             0       -1.425625   -0.602661    0.050325
 ---------------------------------------------------------------------
 Rotational constants (GHZ):     80.2737035     19.8681524     19.8680466
 Standard basis: 6-31+G(d,p) (6D, 7F)
 There are    34 symmetry adapted basis functions of AG  symmetry.
 There are    34 symmetry adapted basis functions of AU  symmetry.
 Integral buffers will be    131072 words long.
 Raffenetti 2 integral format.
 Two-electron integral symmetry is turned on.
    68 basis functions,   106 primitive gaussians,    68 cartesian basis functions
     9 alpha electrons        9 beta electrons
       nuclear repulsion energy        42.1036373748 Hartrees.
 NAtoms=    8 NActive=    8 NUniq=    4 SFac= 3.00D+00 NAtFMM=   80 NAOKFM=F Big=F
 One-electron integrals computed using PRISM.
 NBasis=    68 RedAO= T  NBF=    34    34
 NBsUse=    68 1.00D-06 NBFU=    34    34
 Initial guess read from the read-write file:
 Initial guess orbital symmetries:
 Alpha Orbitals:
       Occupied  (AG) (AU) (AG) (AU) (AU) (AU) (AG) (AG) (AG)
       Virtual   (AG) (AU) (AU) (AU) (AG) (AG) (AG) (AU) (AG) (AG)
                 (AU) (AU) (AU) (AG) (AU) (AG) (AU) (AU) (AG) (AG)
                 (AU) (AU) (AU) (AG) (AG) (AG) (AU) (AG) (AU) (AU)
                 (AU) (AG) (AG) (AG) (AU) (AG) (AU) (AU) (AG) (AG)
                 (AU) (AU) (AU) (AG) (AG) (AG) (AU) (AU) (AU) (AG)
                 (AG) (AG) (AU) (AG) (AG) (AU) (AU) (AG) (AU)
 Beta  Orbitals:
       Occupied  (AG) (AU) (AG) (AU) (AU) (AU) (AG) (AG) (AG)
       Virtual   (AG) (AU) (AU) (AU) (AG) (AG) (AG) (AU) (AG) (AG)
                 (AU) (AU) (AU) (AG) (AU) (AG) (AU) (AU) (AG) (AG)
                 (AU) (AU) (AU) (AG) (AG) (AG) (AU) (AG) (AU) (AU)
                 (AU) (AG) (AG) (AG) (AU) (AG) (AU) (AU) (AG) (AG)
                 (AU) (AU) (AU) (AG) (AG) (AG) (AU) (AU) (AU) (AG)
                 (AG) (AG) (AU) (AG) (AG) (AU) (AU) (AG) (AU)
 <S**2> of initial guess= 0.0000
 Requested convergence on RMS density matrix=1.00D-08 within6000 cycles.
 Requested convergence on MAX density matrix=1.00D-06.
 Requested convergence on             energy=1.00D-06.
 No special actions if energy rises.
 Keep R1 and R2 integrals in memory in canonical form, NReq=    43330812.
 SCF Done:  E(UB+HF-LYP) =  -79.8416429472     A.U. after    6 cycles
             Convg  =    0.8356D-08             -V/T =  2.0110
             S**2   =   0.0000
 Annihilation of the first spin contaminant:
 S**2 before annihilation     0.0000,   after     0.0000
 ***** Axes restored to original set *****
 -------------------------------------------------------------------
 Center     Atomic                   Forces (Hartrees/Bohr)
 Number     Number              X              Y              Z
 -------------------------------------------------------------------
    1          6          -0.000007911   -0.000013804   -0.000005567
    2          1           0.000001664   -0.000002649    0.000045579
    3          1           0.000042820   -0.000000278   -0.000014056
    4          1          -0.000018185    0.000038689   -0.000010652
    5          6           0.000007911    0.000013804    0.000005567
    6          1          -0.000001664    0.000002649   -0.000045579
    7          1           0.000018185   -0.000038689    0.000010652
    8          1          -0.000042820    0.000000278    0.000014056
 -------------------------------------------------------------------
 Cartesian Forces:  Max     0.000045579 RMS     0.000022992

 GradGradGradGradGradGradGradGradGradGradGradGradGradGradGradGradGradGrad
 Berny optimization.
 Internal  Forces:  Max     0.000044925 RMS     0.000021635
 Search for a local minimum.
 Step number   2 out of a maximum of  38 on scan point     1 out of    37
 All quantities printed in internal units (Hartrees-Bohrs-Radians)
 Update second derivatives using D2CorX and points  1  2
 Trust test= 1.01D+00 RLast= 2.39D-02 DXMaxT set to 3.00D-01
     Eigenvalues ---    0.01391   0.04529   0.04729   0.04731   0.12098
     Eigenvalues ---    0.12335   0.12351   0.12491   0.17710   0.17716
     Eigenvalues ---    0.30806   0.34265   0.34270   0.34478   0.34511
     Eigenvalues ---    0.35013   0.352751000.000001000.000001000.00000
     Eigenvalues --- 1000.000001000.000001000.000001000.000001000.00000
     Eigenvalues --- 1000.000001000.000001000.00000
 RFO step:  Lambda= 0.00000000D+00.
 Quartic linear search produced a step of  0.01392.
 Iteration  1 RMS(Cart)=  0.00007197 RMS(Int)=  0.00000000
 Iteration  2 RMS(Cart)=  0.00000000 RMS(Int)=  0.00000000
 Iteration  1 RMS(Cart)=  0.00000000 RMS(Int)=  0.00000000
 Variable       Old X    -DE/DX   Delta X   Delta X   Delta X     New X
                                 (Linear)    (Quad)   (Total)
    R1        2.07030   0.00004   0.00013   0.00000   0.00013   2.07043
    R2        2.07032   0.00004   0.00013   0.00000   0.00013   2.07045
    R3        2.07031   0.00004   0.00013   0.00000   0.00013   2.07043
    R4        2.89515   0.00003   0.00012  -0.00002   0.00010   2.89525
    R5        2.07030   0.00004   0.00013   0.00000   0.00013   2.07043
    R6        2.07031   0.00004   0.00013   0.00000   0.00013   2.07043
    R7        2.07032   0.00004   0.00013   0.00000   0.00013   2.07045
    A1        1.87666   0.00000   0.00001   0.00000   0.00000   1.87667
    A2        1.87672   0.00000   0.00001   0.00000   0.00000   1.87672
    A3        1.94348   0.00000  -0.00001   0.00000   0.00000   1.94348
    A4        1.87670   0.00000   0.00001   0.00000   0.00000   1.87670
    A5        1.94344   0.00000  -0.00001   0.00000   0.00000   1.94343
    A6        1.94347   0.00000  -0.00001   0.00000   0.00000   1.94346
    A7        1.94348   0.00000  -0.00001   0.00000   0.00000   1.94348
    A8        1.94347   0.00000  -0.00001   0.00000   0.00000   1.94346
    A9        1.94344   0.00000  -0.00001   0.00000   0.00000   1.94343
   A10        1.87672   0.00000   0.00001   0.00000   0.00000   1.87672
   A11        1.87666   0.00000   0.00001   0.00000   0.00000   1.87667
   A12        1.87670   0.00000   0.00001   0.00000   0.00000   1.87670
    D1        3.14159   0.00000   0.00000   0.00000   0.00000   3.14159
    D2       -1.04715   0.00000   0.00000   0.00000   0.00000  -1.04715
    D3        1.04724   0.00000   0.00000   0.00000   0.00000   1.04724
    D4       -1.04724   0.00000   0.00000   0.00000   0.00000  -1.04724
    D5        1.04721   0.00000   0.00000   0.00000   0.00000   1.04721
    D6        3.14159   0.00000   0.00000   0.00000   0.00000   3.14159
    D7        1.04715   0.00000   0.00000   0.00000   0.00000   1.04715
    D8        3.14159   0.00000   0.00000   0.00000   0.00000   3.14159
    D9       -1.04721   0.00000   0.00000   0.00000   0.00000  -1.04721
         Item               Value     Threshold  Converged?
 Maximum Force            0.000045     0.000450     YES
 RMS     Force            0.000022     0.000300     YES
 Maximum Displacement     0.000148     0.001800     YES
 RMS     Displacement     0.000072     0.001200     YES
 Predicted change in Energy=-1.874390D-08
 Optimization completed.
    -- Stationary point found.
                           ----------------------------
                           !   Optimized Parameters   !
                           ! (Angstroms and Degrees)  !
 --------------------------                            --------------------------
 ! Name  Definition              Value          Derivative Info.                !
 --------------------------------------------------------------------------------
 ! R1    R(1,2)                  1.0956         -DE/DX =    0.0                 !
 ! R2    R(1,3)                  1.0956         -DE/DX =    0.0                 !
 ! R3    R(1,4)                  1.0956         -DE/DX =    0.0                 !
 ! R4    R(1,5)                  1.532          -DE/DX =    0.0                 !
 ! R5    R(5,6)                  1.0956         -DE/DX =    0.0                 !
 ! R6    R(5,7)                  1.0956         -DE/DX =    0.0                 !
 ! R7    R(5,8)                  1.0956         -DE/DX =    0.0                 !
 ! A1    A(2,1,3)              107.5248         -DE/DX =    0.0                 !
 ! A2    A(2,1,4)              107.5281         -DE/DX =    0.0                 !
 ! A3    A(2,1,5)              111.3533         -DE/DX =    0.0                 !
 ! A4    A(3,1,4)              107.5267         -DE/DX =    0.0                 !
 ! A5    A(3,1,5)              111.3507         -DE/DX =    0.0                 !
 ! A6    A(4,1,5)              111.3524         -DE/DX =    0.0                 !
 ! A7    A(1,5,6)              111.3533         -DE/DX =    0.0                 !
 ! A8    A(1,5,7)              111.3524         -DE/DX =    0.0                 !
 ! A9    A(1,5,8)              111.3507         -DE/DX =    0.0                 !
 ! A10   A(6,5,7)              107.5281         -DE/DX =    0.0                 !
 ! A11   A(6,5,8)              107.5248         -DE/DX =    0.0                 !
 ! A12   A(7,5,8)              107.5267         -DE/DX =    0.0                 !
 ! D1    D(2,1,5,6)            180.0            -DE/DX =    0.0                 !
 ! D2    D(2,1,5,7)            -59.997          -DE/DX =    0.0                 !
 ! D3    D(2,1,5,8)             60.0024         -DE/DX =    0.0                 !
 ! D4    D(3,1,5,6)            -60.0024         -DE/DX =    0.0                 !
 ! D5    D(3,1,5,7)             60.0006         -DE/DX =    0.0                 !
 ! D6    D(3,1,5,8)            180.0            -DE/DX =    0.0                 !
 ! D7    D(4,1,5,6)             59.997          -DE/DX =    0.0                 !
 ! D8    D(4,1,5,7)            180.0            -DE/DX =    0.0                 !
 ! D9    D(4,1,5,8)            -60.0006         -DE/DX =    0.0                 !
 --------------------------------------------------------------------------------
 Iteration  1 RMS(Cart)=  0.01719776 RMS(Int)=  0.02532029
 Iteration  2 RMS(Cart)=  0.00041671 RMS(Int)=  0.02531652
 Iteration  3 RMS(Cart)=  0.00001304 RMS(Int)=  0.02531652
 Iteration  4 RMS(Cart)=  0.00000025 RMS(Int)=  0.02531652
 Iteration  1 RMS(Cart)=  0.01013112 RMS(Int)=  0.01490928
 Iteration  2 RMS(Cart)=  0.00596774 RMS(Int)=  0.01661400
 Iteration  3 RMS(Cart)=  0.00351336 RMS(Int)=  0.01892134
 Iteration  4 RMS(Cart)=  0.00206762 RMS(Int)=  0.02058455
 Iteration  5 RMS(Cart)=  0.00121651 RMS(Int)=  0.02164321
 Iteration  6 RMS(Cart)=  0.00071564 RMS(Int)=  0.02228945
 Iteration  7 RMS(Cart)=  0.00042095 RMS(Int)=  0.02267696
 Iteration  8 RMS(Cart)=  0.00024760 RMS(Int)=  0.02290730
 Iteration  9 RMS(Cart)=  0.00014563 RMS(Int)=  0.02304358
 Iteration 10 RMS(Cart)=  0.00008565 RMS(Int)=  0.02312401
 Iteration 11 RMS(Cart)=  0.00005038 RMS(Int)=  0.02317141
 Iteration 12 RMS(Cart)=  0.00002963 RMS(Int)=  0.02319932
 Iteration 13 RMS(Cart)=  0.00001743 RMS(Int)=  0.02321574
 Iteration 14 RMS(Cart)=  0.00001025 RMS(Int)=  0.02322541
 Iteration 15 RMS(Cart)=  0.00000603 RMS(Int)=  0.02323109
 Iteration 16 RMS(Cart)=  0.00000355 RMS(Int)=  0.02323444
 Iteration 17 RMS(Cart)=  0.00000209 RMS(Int)=  0.02323640
 Iteration 18 RMS(Cart)=  0.00000123 RMS(Int)=  0.02323756
 Iteration 19 RMS(Cart)=  0.00000072 RMS(Int)=  0.02323824
 GradGradGradGradGradGradGradGradGradGradGradGradGradGradGradGradGradGrad

                          Input orientation:                          
 ---------------------------------------------------------------------
 Center     Atomic     Atomic              Coordinates (Angstroms)
 Number     Number      Type              X           Y           Z
 ---------------------------------------------------------------------
    1          6             0       -0.024176    0.017368    0.001728
    2          1             0        0.051549   -0.029238    1.094063
    3          1             0        1.016852   -0.015825   -0.338388
    4          1             0       -0.444274    0.977749   -0.317173
    5          6             0       -0.785465   -1.188341   -0.558659
    6          1             0       -0.710833   -1.236669   -1.650994
    7          1             0       -0.308009   -2.113988   -0.218487
    8          1             0       -1.833197   -1.221869   -0.239814
 ---------------------------------------------------------------------
                    Distance matrix (angstroms):
                    1          2          3          4          5
     1  C    0.000000
     2  H    1.095949   0.000000
     3  H    1.095683   1.727399   0.000000
     4  H    1.095679   1.803178   1.767068   0.000000
     5  C    1.532099   2.185315   2.161403   2.206053   0.000000
     6  H    2.185314   3.094262   2.489637   2.598804   1.095949
     7  H    2.161419   2.489630   2.484336   3.096312   1.095676
     8  H    2.206039   2.598820   3.096295   2.602577   1.095686
                    6          7          8
     6  H    0.000000
     7  H    1.727435   0.000000
     8  H    1.803151   1.767069   0.000000
 Stoichiometry    C2H6
 Framework group  C1[X(C2H6)]
 Deg. of freedom    18
 Full point group                 C1
 Omega: Change in point group or standard orientation.

 Old FWG=CI   [X(C2H6)]
 New FWG=C01  [X(C2H6)]
 Largest Abelian subgroup         C1      NOp   1
 Largest concise Abelian subgroup C1      NOp   1
                         Standard orientation:                         
 ---------------------------------------------------------------------
 Center     Atomic     Atomic              Coordinates (Angstroms)
 Number     Number      Type              X           Y           Z
 ---------------------------------------------------------------------
    1          6             0        0.766049   -0.013212   -0.000551
    2          1             0        1.165855    0.078526   -1.016840
    3          1             0        1.133155    0.883332    0.511272
    4          1             0        1.196786   -0.882588    0.508530
    5          6             0       -0.766049   -0.013202    0.000477
    6          1             0       -1.165851    0.072879    1.017262
    7          1             0       -1.133169    0.886123   -0.506417
    8          1             0       -1.196774   -0.879787   -0.513367
 ---------------------------------------------------------------------
 Rotational constants (GHZ):     80.3345120     19.8718037     19.8525325
 Standard basis: 6-31+G(d,p) (6D, 7F)
 There are    68 symmetry adapted basis functions of A   symmetry.
 Integral buffers will be    131072 words long.
 Raffenetti 2 integral format.
 Two-electron integral symmetry is turned on.
    68 basis functions,   106 primitive gaussians,    68 cartesian basis functions
     9 alpha electrons        9 beta electrons
       nuclear repulsion energy        42.1019036435 Hartrees.
 NAtoms=    8 NActive=    8 NUniq=    8 SFac= 7.50D-01 NAtFMM=   80 NAOKFM=F Big=F
 One-electron integrals computed using PRISM.
 NBasis=    68 RedAO= T  NBF=    68
 NBsUse=    68 1.00D-06 NBFU=    68
 Initial guess read from the read-write file:
 Initial guess orbital symmetries:
 Alpha Orbitals:
       Occupied  (A) (A) (A) (A) (A) (A) (A) (A) (A)
       Virtual   (A) (A) (A) (A) (A) (A) (A) (A) (A) (A) (A) (A)
                 (A) (A) (A) (A) (A) (A) (A) (A) (A) (A) (A) (A)
                 (A) (A) (A) (A) (A) (A) (A) (A) (A) (A) (A) (A)
                 (A) (A) (A) (A) (A) (A) (A) (A) (A) (A) (A) (A)
                 (A) (A) (A) (A) (A) (A) (A) (A) (A) (A) (A)
 Beta  Orbitals:
       Occupied  (A) (A) (A) (A) (A) (A) (A) (A) (A)
       Virtual   (A) (A) (A) (A) (A) (A) (A) (A) (A) (A) (A) (A)
                 (A) (A) (A) (A) (A) (A) (A) (A) (A) (A) (A) (A)
                 (A) (A) (A) (A) (A) (A) (A) (A) (A) (A) (A) (A)
                 (A) (A) (A) (A) (A) (A) (A) (A) (A) (A) (A) (A)
                 (A) (A) (A) (A) (A) (A) (A) (A) (A) (A) (A)
 <S**2> of initial guess= 0.0000
 Harris functional with IExCor=  402 diagonalized for initial guess.
 ExpMin= 4.38D-02 ExpMax= 3.05D+03 ExpMxC= 4.57D+02 IAcc=2 IRadAn=         4 AccDes= 0.00D+00
 HarFok:  IExCor= 402 AccDes= 0.00D+00 IRadAn=         4 IDoV=1
 ScaDFX=  1.000000  1.000000  1.000000  1.000000
 Requested convergence on RMS density matrix=1.00D-08 within6000 cycles.
 Requested convergence on MAX density matrix=1.00D-06.
 Requested convergence on             energy=1.00D-06.
 No special actions if energy rises.
 Keep R1 and R2 integrals in memory in canonical form, NReq=    43330716.
 SCF Done:  E(UB+HF-LYP) =  -79.8403878213     A.U. after   10 cycles
             Convg  =    0.2240D-08             -V/T =  2.0110
             S**2   =   0.0000
 Annihilation of the first spin contaminant:
 S**2 before annihilation     0.0000,   after     0.0000
 ***** Axes restored to original set *****
 -------------------------------------------------------------------
 Center     Atomic                   Forces (Hartrees/Bohr)
 Number     Number              X              Y              Z
 -------------------------------------------------------------------
    1          6           0.006912939   -0.004048563   -0.000394754
    2          1          -0.005975409    0.003526104    0.000430522
    3          1           0.000396684    0.001699254   -0.003239223
    4          1          -0.001211226   -0.000988281    0.002873111
    5          6           0.006609991   -0.004490112    0.000394890
    6          1          -0.005747855    0.003875621   -0.000429906
    7          1          -0.001360622   -0.001090496    0.003237562
    8          1           0.000375498    0.001516473   -0.002872203
 -------------------------------------------------------------------
 Cartesian Forces:  Max     0.006912939 RMS     0.003374909

 GradGradGradGradGradGradGradGradGradGradGradGradGradGradGradGradGradGrad
 Berny optimization.
 Internal  Forces:  Max     0.005914114 RMS     0.002064845
 Search for a local minimum.
 Step number   1 out of a maximum of  38 on scan point     2 out of    37
 All quantities printed in internal units (Hartrees-Bohrs-Radians)
 Second derivative matrix not updated -- first step.
     Eigenvalues ---    0.01388   0.04526   0.04726   0.04728   0.12069
     Eigenvalues ---    0.12322   0.12338   0.12466   0.17687   0.17692
     Eigenvalues ---    0.30797   0.34265   0.34270   0.34478   0.34511
     Eigenvalues ---    0.35013   0.352751000.000001000.000001000.00000
     Eigenvalues --- 1000.000001000.000001000.000001000.000001000.00000
     Eigenvalues --- 1000.000001000.000001000.00000
 RFO step:  Lambda=-1.74367392D-03.
 Linear search not attempted -- first point.
 Maximum step size (   0.300) exceeded in Quadratic search.
    -- Step size scaled by   0.921
 Iteration  1 RMS(Cart)=  0.04600388 RMS(Int)=  0.00168169
 Iteration  2 RMS(Cart)=  0.00151531 RMS(Int)=  0.00032187
 Iteration  3 RMS(Cart)=  0.00000037 RMS(Int)=  0.00032187
 Iteration  1 RMS(Cart)=  0.00000052 RMS(Int)=  0.00000076
 Variable       Old X    -DE/DX   Delta X   Delta X   Delta X     New X
                                 (Linear)    (Quad)   (Total)
    R1        2.07104  -0.00013   0.00000  -0.00051  -0.00051   2.07053
    R2        2.07054   0.00133   0.00000   0.00105   0.00105   2.07159
    R3        2.07053  -0.00124   0.00000  -0.00073  -0.00073   2.06980
    R4        2.89525   0.00009   0.00000   0.00055   0.00055   2.89580
    R5        2.07104  -0.00013   0.00000  -0.00051  -0.00051   2.07053
    R6        2.07053   0.00133   0.00000   0.00106   0.00106   2.07159
    R7        2.07055  -0.00124   0.00000  -0.00074  -0.00074   2.06981
    A1        1.81569   0.00304   0.00000   0.04331   0.04274   1.85844
    A2        1.93249  -0.00251   0.00000  -0.03685  -0.03745   1.89504
    A3        1.94489  -0.00006   0.00000   0.00154   0.00091   1.94580
    A4        1.87601  -0.00010   0.00000  -0.00221  -0.00205   1.87396
    A5        1.91211   0.00122   0.00000   0.02109   0.02088   1.93299
    A6        1.97449  -0.00117   0.00000  -0.02062  -0.02087   1.95362
    A7        1.94488  -0.00006   0.00000   0.00159   0.00096   1.94584
    A8        1.91214   0.00121   0.00000   0.02104   0.02083   1.93298
    A9        1.97446  -0.00117   0.00000  -0.02062  -0.02087   1.95359
   A10        1.81575   0.00303   0.00000   0.04326   0.04269   1.85844
   A11        1.93244  -0.00251   0.00000  -0.03681  -0.03742   1.89502
   A12        1.87601  -0.00010   0.00000  -0.00220  -0.00204   1.87397
    D1       -2.96706  -0.00591   0.00000   0.00000   0.00001  -2.96706
    D2       -0.96728  -0.00154   0.00000   0.06602   0.06621  -0.90107
    D3        1.12538  -0.00158   0.00000   0.06437   0.06418   1.18956
    D4       -0.96738  -0.00153   0.00000   0.06609   0.06628  -0.90109
    D5        1.03240   0.00285   0.00000   0.13210   0.13249   1.16489
    D6        3.12507   0.00280   0.00000   0.13046   0.13045  -3.02767
    D7        1.12528  -0.00158   0.00000   0.06446   0.06427   1.18955
    D8        3.12506   0.00280   0.00000   0.13048   0.13047  -3.02765
    D9       -1.06546   0.00275   0.00000   0.12883   0.12844  -0.93702
         Item               Value     Threshold  Converged?
 Maximum Force            0.002398     0.000450     NO 
 RMS     Force            0.001130     0.000300     NO 
 Maximum Displacement     0.086067     0.001800     NO 
 RMS     Displacement     0.045992     0.001200     NO 
 Predicted change in Energy=-9.472794D-04
 GradGradGradGradGradGradGradGradGradGradGradGradGradGradGradGradGradGrad

                          Input orientation:                          
 ---------------------------------------------------------------------
 Center     Atomic     Atomic              Coordinates (Angstroms)
 Number     Number      Type              X           Y           Z
 ---------------------------------------------------------------------
    1          6             0       -0.007080    0.006759    0.001726
    2          1             0        0.069159   -0.038899    1.093793
    3          1             0        1.019910    0.029720   -0.381027
    4          1             0       -0.480697    0.954595   -0.275683
    5          6             0       -0.768551   -1.199201   -0.558667
    6          1             0       -0.694545   -1.248466   -1.650731
    7          1             0       -0.347803   -2.136305   -0.175854
    8          1             0       -1.827947   -1.179015   -0.281282
 ---------------------------------------------------------------------
                    Distance matrix (angstroms):
                    1          2          3          4          5
     1  C    0.000000
     2  H    1.095676   0.000000
     3  H    1.096236   1.756055   0.000000
     4  H    1.095291   1.778999   1.765874   0.000000
     5  C    1.532390   2.186020   2.177245   2.191296   0.000000
     6  H    2.186049   3.094948   2.487018   2.605756   1.095676
     7  H    2.177234   2.486960   2.569902   3.095366   1.096238
     8  H    2.191281   2.605707   3.095364   2.523372   1.095294
                    6          7          8
     6  H    0.000000
     7  H    1.756060   0.000000
     8  H    1.778992   1.765883   0.000000
 Stoichiometry    C2H6
 Framework group  C1[X(C2H6)]
 Deg. of freedom    18
 Full point group                 C1
 Largest Abelian subgroup         C1      NOp   1
 Largest concise Abelian subgroup C1      NOp   1
                         Standard orientation:                         
 ---------------------------------------------------------------------
 Center     Atomic     Atomic              Coordinates (Angstroms)
 Number     Number      Type              X           Y           Z
 ---------------------------------------------------------------------
    1          6             0       -0.766195    0.004269   -0.000579
    2          1             0       -1.166760   -0.087378   -1.016284
    3          1             0       -1.155041   -0.850281    0.565352
    4          1             0       -1.175666    0.912047    0.455419
    5          6             0        0.766195    0.004270    0.000560
    6          1             0        1.166801   -0.081801    1.016736
    7          1             0        1.155023   -0.853365   -0.560698
    8          1             0        1.175644    0.909547   -0.460411
 ---------------------------------------------------------------------
 Rotational constants (GHZ):     80.2974293     19.8555359     19.8515969
 Standard basis: 6-31+G(d,p) (6D, 7F)
 There are    68 symmetry adapted basis functions of A   symmetry.
 Integral buffers will be    131072 words long.
 Raffenetti 2 integral format.
 Two-electron integral symmetry is turned on.
    68 basis functions,   106 primitive gaussians,    68 cartesian basis functions
     9 alpha electrons        9 beta electrons
       nuclear repulsion energy        42.0942751483 Hartrees.
 NAtoms=    8 NActive=    8 NUniq=    8 SFac= 7.50D-01 NAtFMM=   80 NAOKFM=F Big=F
 One-electron integrals computed using PRISM.
 NBasis=    68 RedAO= T  NBF=    68
 NBsUse=    68 1.00D-06 NBFU=    68
 Initial guess read from the read-write file:
 Initial guess orbital symmetries:
 Alpha Orbitals:
       Occupied  (A) (A) (A) (A) (A) (A) (A) (A) (A)
       Virtual   (A) (A) (A) (A) (A) (A) (A) (A) (A) (A) (A) (A)
                 (A) (A) (A) (A) (A) (A) (A) (A) (A) (A) (A) (A)
                 (A) (A) (A) (A) (A) (A) (A) (A) (A) (A) (A) (A)
                 (A) (A) (A) (A) (A) (A) (A) (A) (A) (A) (A) (A)
                 (A) (A) (A) (A) (A) (A) (A) (A) (A) (A) (A)
 Beta  Orbitals:
       Occupied  (A) (A) (A) (A) (A) (A) (A) (A) (A)
       Virtual   (A) (A) (A) (A) (A) (A) (A) (A) (A) (A) (A) (A)
                 (A) (A) (A) (A) (A) (A) (A) (A) (A) (A) (A) (A)
                 (A) (A) (A) (A) (A) (A) (A) (A) (A) (A) (A) (A)
                 (A) (A) (A) (A) (A) (A) (A) (A) (A) (A) (A) (A)
                 (A) (A) (A) (A) (A) (A) (A) (A) (A) (A) (A)
 <S**2> of initial guess= 0.0000
 Harris functional with IExCor=  402 diagonalized for initial guess.
 ExpMin= 4.38D-02 ExpMax= 3.05D+03 ExpMxC= 4.57D+02 IAcc=2 IRadAn=         4 AccDes= 0.00D+00
 HarFok:  IExCor= 402 AccDes= 0.00D+00 IRadAn=         4 IDoV=1
 ScaDFX=  1.000000  1.000000  1.000000  1.000000
 Requested convergence on RMS density matrix=1.00D-08 within6000 cycles.
 Requested convergence on MAX density matrix=1.00D-06.
 Requested convergence on             energy=1.00D-06.
 No special actions if energy rises.
 Keep R1 and R2 integrals in memory in canonical form, NReq=    43330716.
 SCF Done:  E(UB+HF-LYP) =  -79.8413373685     A.U. after   10 cycles
             Convg  =    0.3470D-08             -V/T =  2.0110
             S**2   =   0.0000
 Annihilation of the first spin contaminant:
 S**2 before annihilation     0.0000,   after     0.0000
 ***** Axes restored to original set *****
 -------------------------------------------------------------------
 Center     Atomic                   Forces (Hartrees/Bohr)
 Number     Number              X              Y              Z
 -------------------------------------------------------------------
    1          6           0.002814659   -0.001096298   -0.000728977
    2          1          -0.002260146    0.001218188    0.000085391
    3          1          -0.000093030    0.000247820   -0.000368916
    4          1          -0.000331879   -0.000165943    0.000657630
    5          6           0.002195702   -0.002069540    0.000729442
    6          1          -0.002069201    0.001518781   -0.000085222
    7          1          -0.000265574   -0.000022287    0.000368069
    8          1           0.000009469    0.000369278   -0.000657417
 -------------------------------------------------------------------
 Cartesian Forces:  Max     0.002814659 RMS     0.001190909

 GradGradGradGradGradGradGradGradGradGradGradGradGradGradGradGradGradGrad
 Berny optimization.
 Internal  Forces:  Max     0.002120548 RMS     0.000658458
 Search for a local minimum.
 Step number   2 out of a maximum of  38 on scan point     2 out of    37
 All quantities printed in internal units (Hartrees-Bohrs-Radians)
 Update second derivatives using D2CorX and points  1  2
 Trust test= 1.00D+00 RLast= 3.05D-01 DXMaxT set to 4.24D-01
     Eigenvalues ---    0.01373   0.04528   0.04730   0.04755   0.12094
     Eigenvalues ---    0.12334   0.12352   0.12488   0.17707   0.17714
     Eigenvalues ---    0.30805   0.34265   0.34268   0.34477   0.34511
     Eigenvalues ---    0.35017   0.352751000.000001000.000001000.00000
     Eigenvalues --- 1000.000001000.000001000.000001000.000001000.00000
     Eigenvalues --- 1000.000001000.000001000.00000
 RFO step:  Lambda=-5.12949691D-06.
 Quartic linear search produced a step of  0.22855.
 Iteration  1 RMS(Cart)=  0.01083396 RMS(Int)=  0.00013268
 Iteration  2 RMS(Cart)=  0.00008666 RMS(Int)=  0.00009292
 Iteration  3 RMS(Cart)=  0.00000000 RMS(Int)=  0.00009292
 Iteration  1 RMS(Cart)=  0.00000233 RMS(Int)=  0.00000343
 Iteration  2 RMS(Cart)=  0.00000137 RMS(Int)=  0.00000382
 Iteration  3 RMS(Cart)=  0.00000081 RMS(Int)=  0.00000436
 Variable       Old X    -DE/DX   Delta X   Delta X   Delta X     New X
                                 (Linear)    (Quad)   (Total)
    R1        2.07053  -0.00012  -0.00012  -0.00013  -0.00025   2.07028
    R2        2.07159   0.00005   0.00024  -0.00086  -0.00062   2.07096
    R3        2.06980  -0.00017  -0.00017   0.00009  -0.00008   2.06972
    R4        2.89580   0.00009   0.00013   0.00054   0.00067   2.89647
    R5        2.07053  -0.00012  -0.00012  -0.00013  -0.00025   2.07028
    R6        2.07159   0.00005   0.00024  -0.00087  -0.00062   2.07097
    R7        2.06981  -0.00017  -0.00017   0.00008  -0.00009   2.06972
    A1        1.85844   0.00087   0.00977  -0.00095   0.00867   1.86711
    A2        1.89504  -0.00080  -0.00856  -0.00104  -0.00979   1.88525
    A3        1.94580  -0.00019   0.00021  -0.00195  -0.00192   1.94388
    A4        1.87396   0.00007  -0.00047   0.00286   0.00244   1.87640
    A5        1.93299   0.00049   0.00477   0.00103   0.00575   1.93874
    A6        1.95362  -0.00039  -0.00477   0.00014  -0.00472   1.94890
    A7        1.94584  -0.00020   0.00022  -0.00200  -0.00196   1.94388
    A8        1.93298   0.00049   0.00476   0.00105   0.00576   1.93874
    A9        1.95359  -0.00039  -0.00477   0.00016  -0.00469   1.94890
   A10        1.85844   0.00087   0.00976  -0.00094   0.00867   1.86711
   A11        1.89502  -0.00080  -0.00855  -0.00102  -0.00977   1.88525
   A12        1.87397   0.00007  -0.00047   0.00285   0.00242   1.87639
    D1       -2.96706  -0.00212   0.00000   0.00000   0.00000  -2.96705
    D2       -0.90107  -0.00084   0.01513  -0.00178   0.01340  -0.88766
    D3        1.18956  -0.00067   0.01467   0.00265   0.01726   1.20681
    D4       -0.90109  -0.00083   0.01515  -0.00177   0.01343  -0.88767
    D5        1.16489   0.00045   0.03028  -0.00356   0.02683   1.19172
    D6       -3.02767   0.00062   0.02981   0.00087   0.03068  -2.99698
    D7        1.18955  -0.00067   0.01469   0.00264   0.01727   1.20682
    D8       -3.02765   0.00062   0.02982   0.00086   0.03067  -2.99697
    D9       -0.93702   0.00079   0.02935   0.00529   0.03453  -0.90250
         Item               Value     Threshold  Converged?
 Maximum Force            0.000571     0.000450     NO 
 RMS     Force            0.000212     0.000300     YES
 Maximum Displacement     0.020251     0.001800     NO 
 RMS     Displacement     0.010833     0.001200     NO 
 Predicted change in Energy=-3.623343D-05
 GradGradGradGradGradGradGradGradGradGradGradGradGradGradGradGradGradGrad

                          Input orientation:                          
 ---------------------------------------------------------------------
 Center     Atomic     Atomic              Coordinates (Angstroms)
 Number     Number      Type              X           Y           Z
 ---------------------------------------------------------------------
    1          6             0       -0.002701    0.004711    0.000665
    2          1             0        0.073380   -0.041296    1.092598
    3          1             0        1.020525    0.039991   -0.390201
    4          1             0       -0.489853    0.948860   -0.265488
    5          6             0       -0.764825   -1.202275   -0.557599
    6          1             0       -0.690542   -1.251218   -1.649528
    7          1             0       -0.356828   -2.141287   -0.166693
    8          1             0       -1.826709   -1.168299   -0.291479
 ---------------------------------------------------------------------
                    Distance matrix (angstroms):
                    1          2          3          4          5
     1  C    0.000000
     2  H    1.095546   0.000000
     3  H    1.095907   1.761358   0.000000
     4  H    1.095250   1.772579   1.767155   0.000000
     5  C    1.532745   2.184859   2.181450   2.188223   0.000000
     6  H    2.184861   3.093015   2.486136   2.606950   1.095546
     7  H    2.181449   2.486132   2.589407   3.094586   1.095908
     8  H    2.188219   2.606941   3.094584   2.504041   1.095249
                    6          7          8
     6  H    0.000000
     7  H    1.761359   0.000000
     8  H    1.772582   1.767152   0.000000
 Stoichiometry    C2H6
 Framework group  C1[X(C2H6)]
 Deg. of freedom    18
 Full point group                 C1
 Largest Abelian subgroup         C1      NOp   1
 Largest concise Abelian subgroup C1      NOp   1
                         Standard orientation:                         
 ---------------------------------------------------------------------
 Center     Atomic     Atomic              Coordinates (Angstroms)
 Number     Number      Type              X           Y           Z
 ---------------------------------------------------------------------
    1          6             0        0.766372    0.002139    0.000126
    2          1             0        1.165514   -0.086396    1.016526
    3          1             0        1.160663   -0.844413   -0.573371
    4          1             0        1.170767    0.917974   -0.444039
    5          6             0       -0.766373    0.002139   -0.000129
    6          1             0       -1.165517   -0.087160   -1.016460
    7          1             0       -1.160663   -0.843979    0.574008
    8          1             0       -1.170762    0.918307    0.443353
 ---------------------------------------------------------------------
 Rotational constants (GHZ):     80.2978967     19.8537962     19.8475415
 Standard basis: 6-31+G(d,p) (6D, 7F)
 There are    68 symmetry adapted basis functions of A   symmetry.
 Integral buffers will be    131072 words long.
 Raffenetti 2 integral format.
 Two-electron integral symmetry is turned on.
    68 basis functions,   106 primitive gaussians,    68 cartesian basis functions
     9 alpha electrons        9 beta electrons
       nuclear repulsion energy        42.0941788957 Hartrees.
 NAtoms=    8 NActive=    8 NUniq=    8 SFac= 7.50D-01 NAtFMM=   80 NAOKFM=F Big=F
 One-electron integrals computed using PRISM.
 NBasis=    68 RedAO= T  NBF=    68
 NBsUse=    68 1.00D-06 NBFU=    68
 Initial guess read from the read-write file:
 Initial guess orbital symmetries:
 Alpha Orbitals:
       Occupied  (A) (A) (A) (A) (A) (A) (A) (A) (A)
       Virtual   (A) (A) (A) (A) (A) (A) (A) (A) (A) (A) (A) (A)
                 (A) (A) (A) (A) (A) (A) (A) (A) (A) (A) (A) (A)
                 (A) (A) (A) (A) (A) (A) (A) (A) (A) (A) (A) (A)
                 (A) (A) (A) (A) (A) (A) (A) (A) (A) (A) (A) (A)
                 (A) (A) (A) (A) (A) (A) (A) (A) (A) (A) (A)
 Beta  Orbitals:
       Occupied  (A) (A) (A) (A) (A) (A) (A) (A) (A)
       Virtual   (A) (A) (A) (A) (A) (A) (A) (A) (A) (A) (A) (A)
                 (A) (A) (A) (A) (A) (A) (A) (A) (A) (A) (A) (A)
                 (A) (A) (A) (A) (A) (A) (A) (A) (A) (A) (A) (A)
                 (A) (A) (A) (A) (A) (A) (A) (A) (A) (A) (A) (A)
                 (A) (A) (A) (A) (A) (A) (A) (A) (A) (A) (A)
 <S**2> of initial guess= 0.0000
 Harris functional with IExCor=  402 diagonalized for initial guess.
 ExpMin= 4.38D-02 ExpMax= 3.05D+03 ExpMxC= 4.57D+02 IAcc=2 IRadAn=         4 AccDes= 0.00D+00
 HarFok:  IExCor= 402 AccDes= 0.00D+00 IRadAn=         4 IDoV=1
 ScaDFX=  1.000000  1.000000  1.000000  1.000000
 Requested convergence on RMS density matrix=1.00D-08 within6000 cycles.
 Requested convergence on MAX density matrix=1.00D-06.
 Requested convergence on             energy=1.00D-06.
 No special actions if energy rises.
 Keep R1 and R2 integrals in memory in canonical form, NReq=    43330716.
 SCF Done:  E(UB+HF-LYP) =  -79.8413734420     A.U. after    9 cycles
             Convg  =    0.9435D-08             -V/T =  2.0110
             S**2   =   0.0000
 Annihilation of the first spin contaminant:
 S**2 before annihilation     0.0000,   after     0.0000
 ***** Axes restored to original set *****
 -------------------------------------------------------------------
 Center     Atomic                   Forces (Hartrees/Bohr)
 Number     Number              X              Y              Z
 -------------------------------------------------------------------
    1          6           0.001374840   -0.000756732   -0.000143802
    2          1          -0.001335105    0.000802837    0.000138136
    3          1          -0.000011276    0.000019166   -0.000001423
    4          1           0.000023004    0.000015872   -0.000011695
    5          6           0.001274681   -0.000915964    0.000144883
    6          1          -0.001299016    0.000860339   -0.000138327
    7          1          -0.000021796    0.000002062    0.000001129
    8          1          -0.000005332   -0.000027580    0.000011099
 -------------------------------------------------------------------
 Cartesian Forces:  Max     0.001374840 RMS     0.000641093

 GradGradGradGradGradGradGradGradGradGradGradGradGradGradGradGradGradGrad
 Berny optimization.
 Internal  Forces:  Max     0.001236494 RMS     0.000365113
 Search for a local minimum.
 Step number   3 out of a maximum of  38 on scan point     2 out of    37
 All quantities printed in internal units (Hartrees-Bohrs-Radians)
 Update second derivatives using D2CorX and points  1  2  3
 Trust test= 9.96D-01 RLast= 7.23D-02 DXMaxT set to 4.24D-01
     Eigenvalues ---    0.01370   0.04529   0.04730   0.04777   0.12110
     Eigenvalues ---    0.12335   0.12352   0.12490   0.17712   0.17716
     Eigenvalues ---    0.30799   0.34265   0.34272   0.34490   0.34511
     Eigenvalues ---    0.35026   0.352751000.000001000.000001000.00000
     Eigenvalues --- 1000.000001000.000001000.000001000.000001000.00000
     Eigenvalues --- 1000.000001000.000001000.00000
 RFO step:  Lambda=-5.58527139D-08.
 Quartic linear search produced a step of -0.01229.
 Iteration  1 RMS(Cart)=  0.00018742 RMS(Int)=  0.00000024
 Iteration  2 RMS(Cart)=  0.00000002 RMS(Int)=  0.00000024
 Iteration  1 RMS(Cart)=  0.00000046 RMS(Int)=  0.00000067
 Variable       Old X    -DE/DX   Delta X   Delta X   Delta X     New X
                                 (Linear)    (Quad)   (Total)
    R1        2.07028   0.00001   0.00000   0.00001   0.00002   2.07030
    R2        2.07096  -0.00001   0.00001  -0.00002  -0.00001   2.07095
    R3        2.06972   0.00001   0.00000   0.00002   0.00002   2.06975
    R4        2.89647   0.00008  -0.00001   0.00023   0.00022   2.89669
    R5        2.07028   0.00001   0.00000   0.00001   0.00002   2.07030
    R6        2.07097  -0.00001   0.00001  -0.00002  -0.00001   2.07095
    R7        2.06972   0.00001   0.00000   0.00003   0.00003   2.06975
    A1        1.86711   0.00041  -0.00011   0.00007  -0.00003   1.86707
    A2        1.88525  -0.00042   0.00012  -0.00004   0.00008   1.88532
    A3        1.94388   0.00002   0.00002   0.00015   0.00017   1.94405
    A4        1.87640  -0.00003  -0.00003  -0.00028  -0.00031   1.87608
    A5        1.93874   0.00023  -0.00007   0.00003  -0.00004   1.93870
    A6        1.94890  -0.00020   0.00006   0.00006   0.00012   1.94902
    A7        1.94388   0.00002   0.00002   0.00014   0.00017   1.94405
    A8        1.93874   0.00023  -0.00007   0.00003  -0.00004   1.93870
    A9        1.94890  -0.00020   0.00006   0.00007   0.00013   1.94902
   A10        1.86711   0.00041  -0.00011   0.00007  -0.00004   1.86707
   A11        1.88525  -0.00042   0.00012  -0.00005   0.00007   1.88532
   A12        1.87639  -0.00003  -0.00003  -0.00028  -0.00031   1.87608
    D1       -2.96705  -0.00124   0.00000   0.00000   0.00000  -2.96706
    D2       -0.88766  -0.00056  -0.00016   0.00020   0.00004  -0.88763
    D3        1.20681  -0.00057  -0.00021  -0.00008  -0.00030   1.20652
    D4       -0.88767  -0.00056  -0.00016   0.00021   0.00004  -0.88763
    D5        1.19172   0.00013  -0.00033   0.00041   0.00008   1.19180
    D6       -2.99698   0.00011  -0.00038   0.00012  -0.00025  -2.99724
    D7        1.20682  -0.00057  -0.00021  -0.00009  -0.00030   1.20652
    D8       -2.99697   0.00011  -0.00038   0.00011  -0.00026  -2.99724
    D9       -0.90250   0.00010  -0.00042  -0.00017  -0.00060  -0.90309
         Item               Value     Threshold  Converged?
 Maximum Force            0.000083     0.000450     YES
 RMS     Force            0.000021     0.000300     YES
 Maximum Displacement     0.000561     0.001800     YES
 RMS     Displacement     0.000187     0.001200     YES
 Predicted change in Energy=-3.945340D-08
 Optimization completed.
    -- Stationary point found.
                           ----------------------------
                           !   Optimized Parameters   !
                           ! (Angstroms and Degrees)  !
 --------------------------                            --------------------------
 ! Name  Definition              Value          Derivative Info.                !
 --------------------------------------------------------------------------------
 ! R1    R(1,2)                  1.0955         -DE/DX =    0.0                 !
 ! R2    R(1,3)                  1.0959         -DE/DX =    0.0                 !
 ! R3    R(1,4)                  1.0952         -DE/DX =    0.0                 !
 ! R4    R(1,5)                  1.5327         -DE/DX =    0.0001              !
 ! R5    R(5,6)                  1.0955         -DE/DX =    0.0                 !
 ! R6    R(5,7)                  1.0959         -DE/DX =    0.0                 !
 ! R7    R(5,8)                  1.0952         -DE/DX =    0.0                 !
 ! A1    A(2,1,3)              106.9774         -DE/DX =    0.0004              !
 ! A2    A(2,1,4)              108.0167         -DE/DX =   -0.0004              !
 ! A3    A(2,1,5)              111.3759         -DE/DX =    0.0                 !
 ! A4    A(3,1,4)              107.5096         -DE/DX =    0.0                 !
 ! A5    A(3,1,5)              111.0817         -DE/DX =    0.0002              !
 ! A6    A(4,1,5)              111.6637         -DE/DX =   -0.0002              !
 ! A7    A(1,5,6)              111.3761         -DE/DX =    0.0                 !
 ! A8    A(1,5,7)              111.0816         -DE/DX =    0.0002              !
 ! A9    A(1,5,8)              111.6635         -DE/DX =   -0.0002              !
 ! A10   A(6,5,7)              106.9775         -DE/DX =    0.0004              !
 ! A11   A(6,5,8)              108.0171         -DE/DX =   -0.0004              !
 ! A12   A(7,5,8)              107.5093         -DE/DX =    0.0                 !
 ! D1    D(2,1,5,6)           -169.9997         -DE/DX =   -0.0012              !
[...]
                     A                      A                      A
 Frequencies --  1410.4008              1431.1607              1508.3023
 Red. masses --     1.1982                 1.2503                 1.0187
 Frc consts  --     1.4044                 1.5089                 1.3655
 IR Inten    --     1.1164                 0.0000                 0.0018
 Atom AN      X      Y      Z        X      Y      Z        X      Y      Z
   1   6     0.09   0.00   0.00    -0.11   0.00   0.00     0.00  -0.02  -0.01
   2   1    -0.37  -0.16  -0.04     0.36   0.17   0.04    -0.29  -0.12  -0.01
   3   1    -0.37   0.04   0.16     0.36  -0.05  -0.17     0.15   0.38  -0.17
   4   1    -0.37   0.12  -0.12     0.37  -0.12   0.12     0.14   0.27   0.34
   5   6     0.09   0.00   0.00     0.11   0.00   0.00     0.00   0.02   0.01
   6   1    -0.37  -0.16  -0.04    -0.36  -0.17  -0.04     0.29   0.12   0.02
   7   1    -0.37   0.12  -0.12    -0.37   0.12  -0.12    -0.14  -0.27  -0.33
   8   1    -0.37   0.04   0.16    -0.36   0.05   0.17    -0.15  -0.39   0.17
                    10                     11                     12
                     A                      A                      A
 Frequencies --  1508.4430              1509.7554              1510.5131
 Red. masses --     1.0189                 1.0620                 1.0620
 Frc consts  --     1.3659                 1.4263                 1.4276
 IR Inten    --     0.0044                11.7008                11.6973
 Atom AN      X      Y      Z        X      Y      Z        X      Y      Z
   1   6     0.00   0.01  -0.02     0.00   0.04   0.03     0.00   0.03  -0.04
   2   1     0.00  -0.12   0.47     0.21   0.15  -0.16     0.09  -0.07   0.48
   3   1     0.25  -0.26  -0.03    -0.17  -0.28   0.18     0.14  -0.42   0.04
   4   1    -0.25   0.24   0.09    -0.03  -0.35  -0.36    -0.22   0.13  -0.04
   5   6     0.00  -0.01   0.02     0.00   0.04   0.03     0.00   0.03  -0.04
   6   1    -0.01   0.11  -0.47     0.21   0.16  -0.18     0.09  -0.07   0.47
   7   1     0.25  -0.23  -0.08    -0.02  -0.36  -0.37    -0.22   0.13  -0.04
   8   1    -0.24   0.28   0.02    -0.18  -0.27   0.18     0.14  -0.41   0.04
                    13                     14                     15
                     A                      A                      A
 Frequencies --  3036.3149              3037.2340              3089.5370
 Red. masses --     1.0341                 1.0367                 1.1016
 Frc consts  --     5.6172                 5.6346                 6.1953
 IR Inten    --    69.1668                 0.0047                 0.0009
 Atom AN      X      Y      Z        X      Y      Z        X      Y      Z
   1   6    -0.03   0.00   0.00     0.04   0.00   0.00     0.00   0.04  -0.05
   2   1     0.14  -0.37  -0.09    -0.14   0.37   0.09     0.08  -0.19  -0.06
   3   1     0.14   0.11   0.37    -0.14  -0.11  -0.37     0.13   0.10   0.31
   4   1     0.14   0.27  -0.28    -0.14  -0.26   0.27    -0.20  -0.37   0.38
   5   6    -0.03   0.00   0.00    -0.04   0.00   0.00     0.00  -0.04   0.05
   6   1     0.14  -0.37  -0.09     0.14  -0.37  -0.09    -0.08   0.20   0.06
   7   1     0.14   0.27  -0.28     0.14   0.27  -0.28     0.20   0.37  -0.38
   8   1     0.14   0.11   0.37     0.14   0.11   0.37    -0.13  -0.10  -0.31
                    16                     17                     18
                     A                      A                      A
 Frequencies --  3089.8433              3113.0343              3113.2924
 Red. masses --     1.1016                 1.1028                 1.1028
 Frc consts  --     6.1963                 6.2967                 6.2977
 IR Inten    --     0.0010                72.7939                72.8138
 Atom AN      X      Y      Z        X      Y      Z        X      Y      Z
   1   6     0.00  -0.05  -0.04     0.00  -0.04   0.05     0.00   0.05   0.04
   2   1    -0.19   0.49   0.11    -0.08   0.19   0.06     0.19  -0.48  -0.11
   3   1     0.16   0.11   0.41    -0.13  -0.10  -0.31    -0.16  -0.11  -0.41
   4   1     0.03   0.04  -0.06     0.21   0.37  -0.38    -0.03  -0.04   0.06
   5   6     0.00   0.05   0.04     0.00  -0.04   0.05     0.00   0.05   0.04
   6   1     0.19  -0.48  -0.11    -0.08   0.19   0.06     0.19  -0.48  -0.11
   7   1    -0.03  -0.04   0.06     0.20   0.37  -0.38    -0.03  -0.04   0.06
   8   1    -0.16  -0.11  -0.41    -0.13  -0.10  -0.31    -0.16  -0.11  -0.41

 -------------------
 - Thermochemistry -
 -------------------
 Temperature   298.150 Kelvin.  Pressure   1.00000 Atm.
 Atom  1 has atomic number  6 and mass  12.00000
 Atom  2 has atomic number  1 and mass   1.00783
 Atom  3 has atomic number  1 and mass   1.00783
 Atom  4 has atomic number  1 and mass   1.00783
 Atom  5 has atomic number  6 and mass  12.00000
 Atom  6 has atomic number  1 and mass   1.00783
 Atom  7 has atomic number  1 and mass   1.00783
 Atom  8 has atomic number  1 and mass   1.00783
 Molecular mass:    30.04695 amu.
 Principal axes and moments of inertia in atomic units:
                           1         2         3
     EIGENVALUES --    22.48532  90.84221  90.84252
           X            1.00000   0.00000   0.00000
           Y            0.00000   1.00000  -0.00001
           Z            0.00000   0.00001   1.00000
 This molecule is an asymmetric top.
 Rotational symmetry number  1.
 Rotational temperatures (Kelvin)      3.85202     0.95345     0.95345
 Rotational constants (GHZ):          80.26309    19.86677    19.86670
 Zero-point vibrational energy     195956.2 (Joules/Mol)
                                   46.83467 (Kcal/Mol)
 Warning -- explicit consideration of   1 degrees of freedom as
           vibrations may cause significant error
 Vibrational temperatures:    448.78  1187.29  1188.54  1437.94  1754.92
          (Kelvin)           1756.95  2029.25  2059.12  2170.11  2170.31
                             2172.20  2173.29  4368.57  4369.90  4445.15
                             4445.59  4478.96  4479.33
 
 Zero-point correction=                           0.074636 (Hartree/Particle)
 Thermal correction to Energy=                    0.078117
 Thermal correction to Enthalpy=                  0.079061
 Thermal correction to Gibbs Free Energy=         0.051520
 Sum of electronic and zero-point Energies=            -79.767013
 Sum of electronic and thermal Energies=               -79.763532
 Sum of electronic and thermal Enthalpies=             -79.762588
 Sum of electronic and thermal Free Energies=          -79.790129
 
                     E (Thermal)             CV                S
                      KCal/Mol        Cal/Mol-Kelvin    Cal/Mol-Kelvin
 Total                   49.019             10.081             57.965
 Electronic               0.000              0.000              0.000
 Translational            0.889              2.981             36.134
 Rotational               0.889              2.981             19.856
 Vibrational             47.242              4.120              1.975
 Vibration  1             0.700              1.651              1.352
                       Q            Log10(Q)             Ln(Q)
 Total Bot       0.200713D-23        -23.697424        -54.565335
 Total V=0       0.429126D+11         10.632585         24.482432
 Vib (Bot)       0.635823D-34        -34.196664        -78.740728
 Vib (Bot)  1    0.605558D+00         -0.217844         -0.501605
 Vib (V=0)       0.135939D+01          0.133345          0.307038
 Vib (V=0)  1    0.128530D+01          0.109005          0.250994
 Electronic      0.100000D+01          0.000000          0.000000
 Translational   0.647375D+07          6.811156         15.683266
 Rotational      0.487623D+04          3.688084          8.492128
 ***** Axes restored to original set *****
 -------------------------------------------------------------------
 Center     Atomic                   Forces (Hartrees/Bohr)
 Number     Number              X              Y              Z
 -------------------------------------------------------------------
    1          6          -0.000025234    0.000009545   -0.000000635
    2          1           0.000012422    0.000002214   -0.000000694
    3          1          -0.000003277   -0.000010222   -0.000010330
    4          1           0.000013092    0.000005657    0.000003269
    5          6           0.000000357    0.000007383    0.000001150
    6          1           0.000003088   -0.000000015    0.000005482
    7          1           0.000003265    0.000005434    0.000001949
    8          1          -0.000003714   -0.000019995   -0.000000192
 -------------------------------------------------------------------
 Cartesian Forces:  Max     0.000025234 RMS     0.000008844

 GradGradGradGradGradGradGradGradGradGradGradGradGradGradGradGradGradGrad
 Berny optimization.
 Internal  Forces:  Max     0.000024153 RMS     0.000008799
 Search for a local minimum.
 Step number   1 out of a maximum of   2 on scan point     1 out of    37
 All quantities printed in internal units (Hartrees-Bohrs-Radians)
 Second derivative matrix not updated -- analytic derivatives used.
     Eigenvalues ---    0.01388   0.04513   0.04711   0.04712   0.12014
     Eigenvalues ---    0.12298   0.12301   0.12446   0.17638   0.17656
     Eigenvalues ---    0.30128   0.33307   0.33317   0.33516   0.33552
     Eigenvalues ---    0.34327   0.345281000.000001000.000001000.00000
     Eigenvalues --- 1000.000001000.000001000.000001000.000001000.00000
     Eigenvalues --- 1000.000001000.000001000.00000
 Angle between quadratic step and forces=  24.62 degrees.
 Linear search not attempted -- first point.
 Iteration  1 RMS(Cart)=  0.00012638 RMS(Int)=  0.00000001
 Iteration  2 RMS(Cart)=  0.00000001 RMS(Int)=  0.00000000
 Iteration  1 RMS(Cart)=  0.00000000 RMS(Int)=  0.00000000
 Variable       Old X    -DE/DX   Delta X   Delta X   Delta X     New X
                                 (Linear)    (Quad)   (Total)
    R1        2.07041   0.00000   0.00000   0.00001   0.00001   2.07043
    R2        2.07046  -0.00001   0.00000  -0.00003  -0.00003   2.07043
    R3        2.07041   0.00001   0.00000   0.00004   0.00004   2.07045
    R4        2.89525   0.00000   0.00000   0.00000   0.00000   2.89524
    R5        2.07042   0.00000   0.00000   0.00001   0.00001   2.07043
    R6        2.07045   0.00000   0.00000   0.00000   0.00000   2.07045
    R7        2.07041   0.00001   0.00000   0.00003   0.00003   2.07043
    A1        1.87666   0.00000   0.00000   0.00005   0.00005   1.87671
    A2        1.87680  -0.00001   0.00000  -0.00010  -0.00010   1.87670
    A3        1.94332   0.00001   0.00000   0.00011   0.00011   1.94343
    A4        1.87669   0.00000   0.00000   0.00002   0.00002   1.87671
    A5        1.94363  -0.00002   0.00000  -0.00016  -0.00016   1.94347
    A6        1.94337   0.00001   0.00000   0.00009   0.00009   1.94346
    A7        1.94350  -0.00001   0.00000  -0.00007  -0.00007   1.94343
    A8        1.94357  -0.00001   0.00000  -0.00011  -0.00011   1.94346
    A9        1.94325   0.00002   0.00000   0.00021   0.00021   1.94347
   A10        1.87668   0.00001   0.00000   0.00002   0.00002   1.87670
   A11        1.87678  -0.00001   0.00000  -0.00007  -0.00007   1.87671
   A12        1.87669   0.00000   0.00000   0.00002   0.00002   1.87671
    D1       -3.14159   0.00000   0.00000   0.00000   0.00000  -3.14159
    D2       -1.04712   0.00000   0.00000  -0.00010  -0.00010  -1.04721
    D3        1.04721   0.00000   0.00000  -0.00001  -0.00001   1.04720
    D4       -1.04722   0.00000   0.00000   0.00002   0.00002  -1.04720
    D5        1.04725   0.00000   0.00000  -0.00008  -0.00008   1.04718
    D6        3.14158   0.00000   0.00000   0.00001   0.00001  -3.14159
    D7        1.04722   0.00000   0.00000   0.00000   0.00000   1.04722
    D8       -3.14149   0.00000   0.00000  -0.00010  -0.00010  -3.14159
    D9       -1.04716   0.00000   0.00000  -0.00001  -0.00001  -1.04717
         Item               Value     Threshold  Converged?
 Maximum Force            0.000024     0.000450     YES
 RMS     Force            0.000009     0.000300     YES
 Maximum Displacement     0.000306     0.001800     YES
 RMS     Displacement     0.000126     0.001200     YES
 Predicted change in Energy=-8.350319D-09
 Optimization completed.
    -- Stationary point found.
                           ----------------------------
                           !   Optimized Parameters   !
                           ! (Angstroms and Degrees)  !
 --------------------------                            --------------------------
 ! Name  Definition              Value          Derivative Info.                !
 --------------------------------------------------------------------------------
 ! R1    R(1,2)                  1.0956         -DE/DX =    0.0                 !
 ! R2    R(1,3)                  1.0956         -DE/DX =    0.0                 !
 ! R3    R(1,4)                  1.0956         -DE/DX =    0.0                 !
 ! R4    R(1,5)                  1.5321         -DE/DX =    0.0                 !
 ! R5    R(5,6)                  1.0956         -DE/DX =    0.0                 !
 ! R6    R(5,7)                  1.0956         -DE/DX =    0.0                 !
 ! R7    R(5,8)                  1.0956         -DE/DX =    0.0                 !
 ! A1    A(2,1,3)              107.5248         -DE/DX =    0.0                 !
 ! A2    A(2,1,4)              107.5327         -DE/DX =    0.0                 !
 ! A3    A(2,1,5)              111.344          -DE/DX =    0.0                 !
 ! A4    A(3,1,4)              107.5263         -DE/DX =    0.0                 !
 ! A5    A(3,1,5)              111.3616         -DE/DX =    0.0                 !
 ! A6    A(4,1,5)              111.3469         -DE/DX =    0.0                 !
 ! A7    A(1,5,6)              111.3543         -DE/DX =    0.0                 !
 ! A8    A(1,5,7)              111.3581         -DE/DX =    0.0                 !
 ! A9    A(1,5,8)              111.3402         -DE/DX =    0.0                 !
 ! A10   A(6,5,7)              107.5257         -DE/DX =    0.0                 !
 ! A11   A(6,5,8)              107.5315         -DE/DX =    0.0                 !
 ! A12   A(7,5,8)              107.5267         -DE/DX =    0.0                 !
 ! D1    D(2,1,5,6)           -179.9998         -DE/DX =    0.0                 !
 ! D2    D(2,1,5,7)            -59.9954         -DE/DX =    0.0                 !
 ! D3    D(2,1,5,8)             60.0007         -DE/DX =    0.0                 !
 ! D4    D(3,1,5,6)            -60.0011         -DE/DX =    0.0                 !
 ! D5    D(3,1,5,7)             60.0033         -DE/DX =    0.0                 !
 ! D6    D(3,1,5,8)           -180.0007         -DE/DX =    0.0                 !
 ! D7    D(4,1,5,6)             60.0015         -DE/DX =    0.0                 !
 ! D8    D(4,1,5,7)           -179.9941         -DE/DX =    0.0                 !
 ! D9    D(4,1,5,8)            -59.9981         -DE/DX =    0.0                 !
 --------------------------------------------------------------------------------
 Iteration  1 RMS(Cart)=  0.01719750 RMS(Int)=  0.02532048
 Iteration  2 RMS(Cart)=  0.00041671 RMS(Int)=  0.02531671
 Iteration  3 RMS(Cart)=  0.00001304 RMS(Int)=  0.02531671
 Iteration  4 RMS(Cart)=  0.00000025 RMS(Int)=  0.02531671
 Iteration  1 RMS(Cart)=  0.01013113 RMS(Int)=  0.01490962
 Iteration  2 RMS(Cart)=  0.00596783 RMS(Int)=  0.01661436
 Iteration  3 RMS(Cart)=  0.00351347 RMS(Int)=  0.01892178
 Iteration  4 RMS(Cart)=  0.00206772 RMS(Int)=  0.02058508
 Iteration  5 RMS(Cart)=  0.00121658 RMS(Int)=  0.02164381
 Iteration  6 RMS(Cart)=  0.00071569 RMS(Int)=  0.02229011
 Iteration  7 RMS(Cart)=  0.00042099 RMS(Int)=  0.02267766
 Iteration  8 RMS(Cart)=  0.00024763 RMS(Int)=  0.02290802
 Iteration  9 RMS(Cart)=  0.00014565 RMS(Int)=  0.02304432
 Iteration 10 RMS(Cart)=  0.00008567 RMS(Int)=  0.02312476
 Iteration 11 RMS(Cart)=  0.00005039 RMS(Int)=  0.02317217
 Iteration 12 RMS(Cart)=  0.00002963 RMS(Int)=  0.02320008
 Iteration 13 RMS(Cart)=  0.00001743 RMS(Int)=  0.02321651
 Iteration 14 RMS(Cart)=  0.00001025 RMS(Int)=  0.02322618
 Iteration 15 RMS(Cart)=  0.00000603 RMS(Int)=  0.02323186
 Iteration 16 RMS(Cart)=  0.00000355 RMS(Int)=  0.02323521
 Iteration 17 RMS(Cart)=  0.00000209 RMS(Int)=  0.02323718
 Iteration 18 RMS(Cart)=  0.00000123 RMS(Int)=  0.02323834
 Iteration 19 RMS(Cart)=  0.00000072 RMS(Int)=  0.02323902
 GradGradGradGradGradGradGradGradGradGradGradGradGradGradGradGradGradGrad

 1\1\GINC-NODE63\Scan\UB3LYP\6-31+G(d,p)\C2H6\CFGOLD\24-Mar-2010\0\\#N 
 Geom=AllCheck Guess=Read SCRF=Check GenChk UB3LYP/6-31+G(d,p) Freq\\Ti
 tle Card Required\\0,1\C,0.0012937008,0.0020149669,0.0001519114\H,0.39
 77583228,0.6299035266,-0.8054176671\H,-0.6464364576,0.6312873261,0.620
 5494998\H,0.8478319529,-0.3126145245,0.6204351324\C,-0.7607339844,-1.2
 047074519,-0.5570364652\H,-1.1572803279,-1.8327183785,0.2484024048\H,-
 1.6072761864,-0.8902772063,-1.1774523432\H,-0.1127101029,-1.8337010304
 ,-1.1773573856\\Version=AM64L-G03RevD.01\State=1-A\HF=-79.8416486,0.,0
 .,0.,0.,0.0000403,-21.8430476,-0.0050805,0.0000564,-0.0012216,0.005279
 7,0.0019966,0.0008462,-0.0005505,-0.0074575,0.0000091,-0.0005541,-0.00
 04789,0.0008125,-0.0025551,-0.0001366,0.0000812,0.0011482,0.0000044,-0
 .0000003,0.0000918,0.0000002,0.0000917,-0.0006234,0.0043189,0.0001154,
 -0.0043872,0.0003149,0.0078752,-0.000003,0.0000109,-0.0000226\S2=0.,0.
 ,0.,0.,0.,-0.001206,0.,0.000345,-0.000061,-0.000645,-0.000028,0.068365
 ,0.011646,0.001361,0.064285,-0.000127,0.000458,-0.00067,0.000094,-0.00
 0077,-0.000122,-0.003842,-0.000001,-0.000002,-0.002603,-0.000039,0.003
 818,0.000003,-0.00191,-0.00001,0.000011,0.00592,-0.001651,0.000686,0.0
 00004,0.000476,-0.002373\S2-1=0.,0.,0.,0.,0.,0.000008,0.,-0.000013,0.0
 00022,-0.000564,-0.007036,0.000588,0.015153,0.000157,0.046785,0.004336
 ,0.002114,0.000401,0.000027,-0.00027,-0.000184,-0.013279,0.006507,0.00
 2426,-0.000113,0.000089,0.004611,-0.000221,-0.000046,0.00054,-0.000984
 ,0.011406,0.00096,-0.001492,0.000001,-0.000103,0.0001\S2A=0.,0.,0.,0.,
 0.,-0.000015,0.,0.000047,0.00104,-0.000006,-0.000811,-0.027207,0.00271
 5,0.,-0.091228,0.000031,-0.00004,0.000101,0.000204,-0.000035,-0.000813
 ,-0.000034,0.000389,-0.000119,0.039513,-0.001446,0.000004,0.000031,0.0
 02452,0.000001,-0.000716,-0.000791,0.00003,0.052396,0.000024,0.,-0.001
 279\RMSD=7.897e-10,-4.313e-12,7.045e-08,1.684e-07,9.103e-11,1.039e-04,
 0.000e+00,1.302e-04,-3.031e-06,1.692e-01,-1.206e-03,3.515e-02,-5.299e-
 04,-6.113e-06,-2.721e-02,1.101e-04,-3.449e-05,1.419e-02,4.896e-05,1.84
 5e-02,9.347e-04,5.991e-05,1.924e-04,8.555e-05,-1.987e-06,-2.550e-03,1.
 756e-06,7.765e-07,8.672e-05,-1.620e-05,1.507e-03,-2.365e-07,3.250e-05,
 -2.747e-02,-1.970e-03,6.774e-06,-1.717e-04\ZeroPoint=0.0746358,0.,0.,0
 .0000005,0.,0.0000864,0.,-0.0082285,-0.0135428,0.1868461,0.0005331,-0.
 0000956,0.0002014,-0.0000764,0.0029431,0.0000048,-0.0044173,-0.0000444
 ,-0.0000102,0.0046076,-0.0000839,-0.0013995,0.0000002,0.0002687,-0.008
 558,0.0013391,-0.0000337,-0.0000686,0.0002589,0.0001923,0.0005085,-0.0
 000007,-0.0000871,-0.000001,0.0002564,-0.000137,0.0000277\Thermal=0.07
 81169,0.,0.,0.,0.,0.0000052,0.,0.0009778,0.0141682,0.2591439,-0.000738
 5,-0.0000476,-0.0080447,-0.0001038,-0.0037178,0.0000247,-0.0047823,-0.
 000189,-0.0000333,-0.0004477,-0.0002482,0.0001856,-0.0000001,-0.000546
 9,-0.0002508,0.0030069,0.0000856,0.0000358,0.0011022,-0.0003171,0.0000
 045,0.0082219,-0.000088,0.0000066,-0.0000017,-0.0000618,0.0000195\PG=C
 01 [X(C2H6)]\\@


 We're simply so accustomed to the marvels of everyday thought
 that we never wonder about it.
 -- Marvin Minsky in "Why people think computers are smart"
 Job cpu time:  0 days  0 hours  4 minutes  2.6 seconds.
 File lengths (MBytes):  RWF=     21 Int=      0 D2E=      0 Chk=     12 Scr=      1
 Normal termination of Gaussian 03 at Wed Mar 24 18:45:46 2010.
