
Running Job 1 of 2 hco.in
qchem hco.in_28563.0 /scratch/edames/qchem28563/ 2
/opt/qchem/bin/mpi/mpirun_qchem -machinefile /tmp/317675.1.normal3/hostfile -np 2 /opt/qchem/exe/qcprog.exe hco.in_28563.0 /scratch/edames/qchem28563/

Process 0 of 2 is on node65.cluster - thread support 0
Process 1 of 2 is on node65.cluster - thread support 0
initial socket setup ...start
initial socket setup ...done 
now start server 0 ... 
set process cleaner
                  Welcome to Q-Chem
     A Quantum Leap Into The Future Of Chemistry


 Q-Chem 4.2, Q-Chem, Inc., Pleasanton, CA (2014).

 Y. Shao,  Z. Gan,  E. Epifanovsky,  A. T. B. Gilbert,  M. Wormit,  
 J. Kussmann,  A. W. Lange,  A. Behn,  J. Deng,  X. Feng,  D. Ghosh,  
 M. Goldey,  P. R. Horn,  L. D. Jacobson,  I. Kaliman,  R. Z. Khaliullin,  
 T. Kus,  A. Landau,  J. Liu,  E. I. Proynov,  Y. M. Rhee,  R. M. Richard,  
 M. A. Rohrdanz,  R. P. Steele,  E. J. Sundstrom,  H. L. Woodcock III,  
 P. M. Zimmerman,  D. Zuev,  B. Albrecht,  E. Alguire,  B. Austin,  
 G. J. O. Beran,  Y. A. Bernard,  E. Berquist,  K. Brandhorst,  
 K. B. Bravaya,  S. T. Brown,  D. Casanova,  C.-M. Chang,  Y. Chen,  
 S. H. Chien,  K. D. Closser,  D. L. Crittenden,  M. Diedenhofen,  
 R. A. DiStasio Jr.,  H. Do,  A. D. Dutoi,  R. G. Edgar,  S. Fatehi,  
 L. Fusti-Molnar,  A. Ghysels,  A. Golubeva-Zadorozhnaya,  J. Gomes,  
 M. W. D. Hanson-Heine,  P. H. P. Harbach,  A. W. Hauser,  E. G. Hohenstein,  
 Z. C. Holden,  T.-C. Jagau,  H. Ji,  B. Kaduk,  K. Khistyaev,  Jaehoon Kim,  
 Jihan Kim,  R. A. King,  P. Klunzinger,  D. Kosenkov,  T. Kowalczyk,  
 C. M. Krauter,  K. U. Lao,  A. Laurent,  K. V. Lawler,  S. V. Levchenko,  
 C. Y. Lin,  F. Liu,  E. Livshits,  R. C. Lochan,  A. Luenser,  P. Manohar,  
 S. F. Manzer,  S.-P. Mao,  N. Mardirossian,  A. V. Marenich,  S. A. Maurer,  
 N. J. Mayhall,  C. M. Oana,  R. Olivares-Amaya,  D. P. O'Neill,  
 J. A. Parkhill,  T. M. Perrine,  R. Peverati,  P. A. Pieniazek,  A. Prociuk,  
 D. R. Rehn,  E. Rosta,  N. J. Russ,  N. Sergueev,  S. M. Sharada,  
 S. Sharma,  D. W. Small,  A. Sodt,  T. Stein,  D. Stuck,  Y.-C. Su,  
 A. J. W. Thom,  T. Tsuchimochi,  L. Vogt,  O. Vydrov,  T. Wang,  
 M. A. Watson,  J. Wenzel,  A. White,  C. F. Williams,  V. Vanovschi,  
 S. Yeganeh,  S. R. Yost,  Z.-Q. You,  I. Y. Zhang,  X. Zhang,  Y. Zhao,  
 B. R. Brooks,  G. K. L. Chan,  D. M. Chipman,  C. J. Cramer,  
 W. A. Goddard III,  M. S. Gordon,  W. J. Hehre,  A. Klamt,  
 H. F. Schaefer III,  M. W. Schmidt,  C. D. Sherrill,  D. G. Truhlar,  
 A. Warshel,  X. Xu,  A. Aspuru-Guzik,  R. Baer,  A. T. Bell,  N. A. Besley,  
 J.-D. Chai,  A. Dreuw,  B. D. Dunietz,  T. R. Furlani,  S. R. Gwaltney,  
 C.-P. Hsu,  Y. Jung,  J. Kong,  D. S. Lambrecht,  W. Liang,  C. Ochsenfeld,  
 V. A. Rassolov,  L. V. Slipchenko,  J. E. Subotnik,  T. Van Voorhis,  
 J. M. Herbert,  A. I. Krylov,  P. M. W. Gill,  M. Head-Gordon

 Contributors to earlier versions of Q-Chem not listed above: 
 R. D. Adamson,  J. Baker,  E. F. C. Byrd,  A. K. Chakraborty,  C.-L. Cheng,  
 H. Dachsel,  R. J. Doerksen,  G. Hawkins,  A. Heyden,  S. Hirata,  
 G. Kedziora,  F. J. Keil,  C. Kelley,  P. P. Korambath,  W. Kurlancheek,  
 A. M. Lee,  M. S. Lee,  D. Liotard,  I. Lotan,  P. E. Maslen,  N. Nair,  
 D. Neuhauser,  R. Olson,  B. Peters,  J. Ritchie,  N. E. Schultz,  
 N. Shenvi,  A. C. Simmonett,  K. S. Thanthiriwatte,  Q. Wu,  W. Zhang

 Q-Chem 4.2.0 for Intel X86 Linux

 Parts of Q-Chem use Armadillo 4.100.2 (Dirt Cruiser).
 http://arma.sourceforge.net/

 Q-Chem begins on Mon Jun 23 15:14:50 2014  

Host: 
0

     Scratch files written to /scratch/edames/qchem28563.0//
 May2514 8580_ilyak 4150   
 Parallel job on  2  processors
Processing $rem in /opt/qchem/config/preferences.
 MEM_TOTAL  2000 
Warning: disabling incdft.
 Q-Chem warning in module /home/scratch/svnadmin/8580_ilyak/qchem/forms1/BasisType.C, line 1209:

 Setting pure/cartesian flag to 2111 for general basis


Finally everything over in PARseQInput

--------------------------------------------------------------
User input:
--------------------------------------------------------------
$rem
XC_GRID 000075000434
JOBTYPE opt
EXCHANGE M08SO
SCF_ALGORITHM DIIS_GDM
BASIS gen
GUI=2
UNRESTRICTED TRUE
CORRELATION NONE
$end

$comment
c5h11o-2
$end

$molecule
0 2
C          4.19057        0.30830       -0.15712
O          5.41003        0.30830       -0.15712
H          3.67457        0.59927       -1.00217
$end

$basis
H  0
S  3 1.00
3.386500000000E+01 2.549380000000E-02
5.094790000000E+00 1.903730000000E-01
1.158790000000E+00 8.521610000000E-01
S  1 1.00
3.258400000000E-01 1.000000000000E+00
S  1 1.00
1.027410000000E-01 1.000000000000E+00
S  1 1.00
3.600000000000E-02 1.000000000000E+00
P  1 1.00
1.500000000000E+00 1.000000000000E+00
P  1 1.00
3.750000000000E-01 1.000000000000E+00
****
C 0
S  6 1.00
4.563240000000E+03 1.966650000000E-03
6.820240000000E+02 1.523060000000E-02
1.549730000000E+02 7.612690000000E-02
4.445530000000E+01 2.608010000000E-01
1.302900000000E+01 6.164620000000E-01
1.827730000000E+00 2.210060000000E-01
S  3 1.00
2.096420000000E+01 1.146600000000E-01
4.803310000000E+00 9.199990000000E-01
1.459330000000E+00 -3.030680000000E-03
S  1 1.00
4.834560000000E-01 1.000000000000E+00
S  1 1.00
1.455850000000E-01 1.000000000000E+00
S  1 1.00
4.380000000000E-02 1.000000000000E+00
P  3 1.00
2.096420000000E+01 4.024870000000E-02
4.803310000000E+00 2.375940000000E-01
1.459330000000E+00 8.158540000000E-01
P  1 1.00
4.834560000000E-01 1.000000000000E+00
P  1 1.00
1.455850000000E-01 1.000000000000E+00
P  1 1.00
4.380000000000E-02 1.000000000000E+00
D  1 1.00
1.252000000000E+00 1.000000000000E+00
D  1 1.00
3.130000000000E-01 1.000000000000E+00
F  1 1.00
8.000000000000E-01 1.000000000000E+00
****
O  0
S  6 1.00
8.588500000000E+03 1.895150000000E-03
1.297230000000E+03 1.438590000000E-02
2.992960000000E+02 7.073200000000E-02
8.737710000000E+01 2.400010000000E-01
2.567890000000E+01 5.947970000000E-01
3.740040000000E+00 2.808020000000E-01
S  3 1.00
4.211750000000E+01 1.138890000000E-01
9.628370000000E+00 9.208110000000E-01
2.853320000000E+00 -3.274470000000E-03
S  1 1.00
9.056610000000E-01 1.000000000000E+00
S  1 1.00
2.556110000000E-01 1.000000000000E+00
S  1 1.00
8.450000000000E-02 1.000000000000E+00
P  3 1.00
4.211750000000E+01 3.651140000000E-02
9.628370000000E+00 2.371530000000E-01
2.853320000000E+00 8.197020000000E-01
P  1 1.00
9.056610000000E-01 1.000000000000E+00
P  1 1.00
2.556110000000E-01 1.000000000000E+00
P  1 1.00
8.450000000000E-02 1.000000000000E+00
D  1 1.00
2.584000000000E+00 1.000000000000E+00
D  1 1.00
6.460000000000E-01 1.000000000000E+00
F  1 1.00
1.400000000000E+00 1.000000000000E+00
****
$end

--------------------------------------------------------------
 ----------------------------------------------------------------
             Standard Nuclear Orientation (Angstroms)
    I     Atom           X                Y                Z
 ----------------------------------------------------------------
    1      C       0.5970452449     0.1628397854     0.0000000000
    2      O      -0.6048693788    -0.0432765137     0.0000000000
    3      H       1.2566835611    -0.6308266025     0.0000000000
 ----------------------------------------------------------------
 Molecular Point Group                 Cs    NOp =  2
 Largest Abelian Subgroup              Cs    NOp =  2
 Nuclear Repulsion Energy =    26.0745873219 hartrees
 There are        8 alpha and        7 beta electrons
 Requested basis set is non-standard
 There are 30 shells and 78 basis functions

Total QAlloc Memory Limit   2000 MB
Mega-Array Size        61 MB
MEM_STATIC part        62 MB
 A cutoff of  1.0D-12 yielded    465 shell pairs
 There are      3193 function pairs (      4096 Cartesian)
 Smallest overlap matrix eigenvalue = 1.22E-03

  Scale SEOQF with 1.000000e-01/1.000000e-01/1.000000e-01

 Standard Electronic Orientation quadrupole field applied
 Nucleus-field energy     =     0.0000000003 hartrees
 Guess MOs from core Hamiltonian diagonalization
 An unrestricted hybrid HF-DFT SCF calculation will be
 performed using Pulay DIIS + Geometric Direct Minimization
 Exchange:     0.5679 Hartree-Fock + 1.0000 M08SO
 SCF converges when RMS gradient is below 1.0E-08
 ---------------------------------------
  Cycle       Energy         DIIS Error
 ---------------------------------------
    1     -93.8506071309      2.27E-01
    2     -94.9885383754      7.85E-02
    3    -104.5468810687      1.17E-01
    4    -109.1611115907      8.27E-02
    5    -111.3662098747      6.01E-02
    6    -113.3351671227      2.40E-02
    7    -113.7161820081      1.07E-02
    8    -113.7847470876      4.83E-03 Done DIIS. Switching to GDM
    9    -113.7984245795      3.09E-02 Normal BFGS step
   10    -113.7984759846      2.68E-02 Normal BFGS step
   11    -113.7993777547      4.08E-03 Normal BFGS step
   12    -113.7994456831      2.98E-03 Normal BFGS step
   13    -113.7994642066      7.51E-04 Normal BFGS step
   14    -113.7994671961      4.08E-04 Normal BFGS step
   15    -113.7994678555      1.79E-04 Normal BFGS step
   16    -113.7994679853      7.05E-05 Normal BFGS step
   17    -113.7994680117      1.26E-05 Normal BFGS step
   18    -113.7994680130      2.43E-06 Normal BFGS step
   19    -113.7994680131      8.02E-07 Normal BFGS step
   20    -113.7994680131      2.34E-07 Normal BFGS step
   GDM::WARNING energy changes are now smaller than effective accuracy.
   GDM::        calculation will continue, but THRESH should be increased
   GDM::        or SCF_CONVERGENCE decreased.
   GDM::        effective_thresh =   7.709429154095782E-010
   21    -113.7994680131      4.72E-08 Normal BFGS step
   GDM::WARNING energy changes are now smaller than effective accuracy.
   GDM::        calculation will continue, but THRESH should be increased
   GDM::        or SCF_CONVERGENCE decreased.
   GDM::        effective_thresh =   7.709429154095782E-010
   22    -113.7994680131      1.42E-08 Normal BFGS step
   23    -113.7994680131      5.96E-09 Convergence criterion met
 ---------------------------------------
 <S^2> = 0.7541
 SCF time:  CPU 59.31 s  wall 65.30 s
 SCF   energy in the final basis set = -113.7994680131
 Total energy in the final basis set = -113.7994680131
 Analysis of SCF Wavefunction
 
 --------------------------------------------------------------
             Orbital Energies (a.u.) and Symmetries
 --------------------------------------------------------------
 
 Alpha MOs, Unrestricted
 -- Occupied --                  
-19.640 -10.614  -1.210  -0.740  -0.598  -0.528  -0.507  -0.308
  1 A'    2 A'    3 A'    4 A'    5 A'    6 A'    1 A"    7 A'                 
 -- Virtual --                   
 -0.030  -0.015   0.023   0.042   0.050   0.101   0.169   0.183
  2 A"    8 A'    9 A'   10 A'    3 A"   11 A'   12 A'   13 A'                 
  0.204   0.213   0.281   0.371   0.483   0.534   0.537   0.586
  4 A"   14 A'   15 A'   16 A'   17 A'   18 A'    5 A"    6 A"                 
  0.602   0.682   0.761   0.806   0.929   0.965   0.997   1.046
 19 A'   20 A'   21 A'    7 A"   22 A'   23 A'    8 A"   24 A'                 
  1.074   1.139   1.312   1.430   1.481   1.621   1.641   1.926
  9 A"   25 A'   26 A'   27 A'   28 A'   10 A"   29 A'   11 A"                 
  2.059   2.251   2.383   2.716   2.782   2.800   2.849   2.877
 30 A'   31 A'   32 A'   12 A"   13 A"   33 A'   34 A'   14 A"                 
  2.996   3.042   3.133   3.187   3.191   3.370   3.466   3.481
 35 A'   36 A'   15 A"   37 A'   16 A"   38 A'   39 A'   17 A"                 
  3.762   3.953   4.110   4.267   4.947   4.978   5.054   5.062
 40 A'   41 A'   18 A"   42 A'   43 A'   19 A"   20 A"   44 A'                 
  5.072   5.301   5.309   5.651   6.088   6.218   6.706   6.723
 45 A'   21 A"   46 A'   47 A'   22 A"   48 A'   23 A"   49 A'                 
  6.828   7.068   7.137   7.435  24.306  49.752
 50 A'   24 A"   51 A'   52 A'   53 A'   54 A'                                 
 
 Beta MOs, Unrestricted
 -- Occupied --                  
-19.630 -10.601  -1.187  -0.709  -0.567  -0.501  -0.461
  1 A'    2 A'    3 A'    4 A'    5 A'    1 A"    6 A'                         
 -- Virtual --                   
 -0.063  -0.028  -0.022   0.017   0.031   0.048   0.093   0.166
  7 A'    8 A'    2 A"    9 A'   10 A'    3 A"   11 A'   12 A'                 
  0.183   0.201   0.212   0.282   0.381   0.498   0.545   0.547
 13 A'    4 A"   14 A'   15 A'   16 A'   17 A'    5 A"   18 A'                 
  0.603   0.623   0.707   0.771   0.818   0.940   0.968   1.007
  6 A"   19 A'   20 A'   21 A'    7 A"   22 A'   23 A'    8 A"                 
  1.064   1.073   1.164   1.327   1.445   1.489   1.637   1.657
 24 A'    9 A"   25 A'   26 A'   27 A'   28 A'   10 A"   29 A'                 
  1.922   2.088   2.257   2.393   2.722   2.807   2.835   2.900
 11 A"   30 A'   31 A'   32 A'   12 A"   13 A"   33 A'   34 A'                 
  2.913   3.027   3.064   3.203   3.246   3.275   3.396   3.491
 14 A"   35 A'   36 A'   15 A"   16 A"   37 A'   38 A'   17 A"                 
  3.540   3.750   3.962   4.118   4.305   4.964   4.984   5.046
 39 A'   40 A'   41 A'   18 A"   42 A'   43 A'   19 A"   20 A"                 
  5.066   5.120   5.284   5.295   5.630   6.067   6.228   6.722
 44 A'   45 A'   46 A'   21 A"   47 A'   22 A"   48 A'   23 A"                 
  6.733   6.805   7.048   7.143   7.416  24.312  49.759
 49 A'   50 A'   24 A"   51 A'   52 A'   53 A'   54 A'                         
 --------------------------------------------------------------
 
          Ground-State Mulliken Net Atomic Charges

     Atom                 Charge (a.u.)    Spin (a.u.)
  --------------------------------------------------------
      1 C                    -0.015721       0.613948
      2 O                    -0.137893       0.275295
      3 H                     0.153614       0.110758
  --------------------------------------------------------
  Sum of atomic charges =     0.000000
  Sum of spin   charges =     1.000000

 -----------------------------------------------------------------
                    Cartesian Multipole Moments
 -----------------------------------------------------------------
    Charge (ESU x 10^10)
                 0.0000
    Dipole Moment (Debye)
         X       1.7852      Y      -0.8413      Z       0.0000
       Tot       1.9735
    Quadrupole Moments (Debye-Ang)
        XX     -11.3110     XY      -1.2211     YY     -11.9333
        XZ       0.0000     YZ       0.0000     ZZ     -11.1414
    Octopole Moments (Debye-Ang^2)
       XXX      -1.1508    XXY      -1.9939    XYY      -0.9477
       YYY      -2.2647    XXZ       0.0000    XYZ       0.0000
       YYZ       0.0000    XZZ      -0.6373    YZZ      -0.5179
       ZZZ       0.0000
    Hexadecapole Moments (Debye-Ang^3)
      XXXX     -40.5341   XXXY      -2.9595   XXYY      -9.6632
      XYYY      -2.1438   YYYY     -15.7489   XXXZ       0.0000
      XXYZ       0.0000   XYYZ       0.0000   YYYZ       0.0000
      XXZZ      -8.5123   XYZZ      -0.4359   YYZZ      -4.3814
      XZZZ       0.0000   YZZZ       0.0000   ZZZZ     -10.4078
 -----------------------------------------------------------------
 Calculating analytic gradient of the SCF energy
 Gradient of Coulomb and Exchange Energy
            1           2           3
    1  -8.8550906  10.7563723  -1.9012817
    2  -3.3726965   1.5290034   1.8436931
    3  -0.0000000   0.0000000   0.0000000
 Gradient of SCF Energy
            1           2           3
    1   0.1187573  -0.0740051  -0.0447522
    2  -0.0245917  -0.0185577   0.0431494
    3   0.0000000  -0.0000000   0.0000000
 Max gradient component =       1.188E-01
 RMS gradient           =       5.206E-02
 Gradient time:  CPU 3.81 s  wall 4.29 s
 Geometry Optimization Parameters
   NAtoms,    NIC,     NZ,  NCons,   NDum,   NFix, NCnnct, MaxDiis
        3       9       0       0       0       0       0       0


** GEOMETRY OPTIMIZATION IN DELOCALIZED INTERNAL COORDINATES **
   Searching for a Minimum

   Optimization Cycle:   1

                       Coordinates (Angstroms)
     ATOM                X               Y               Z
      1  C         0.5970452449    0.1628397854    0.0000000000
      2  O        -0.6048693788   -0.0432765137    0.0000000000
      3  H         1.2566835611   -0.6308266025    0.0000000000
   Point Group: cs    Number of degrees of freedom:     3


   Energy is   -113.799468013


 Attempting to Generate Delocalized Internal Coordinates
 GETINT wrote B to file, NVib is            3
 calling HSSCONV
 HCONV 3*NATOMS:            9
 wrote HINT to file
  writing hessian 

  3 Hessian modes will be used to form the next step
  Hessian Eigenvalues:
     0.160000    0.424770    0.956229

 Minimum Search - Taking Simple RFO Step
 Searching for Lamda that Minimizes Along All modes
 Value Taken    Lamda =  -0.01563664
 Step Taken.  Stepsize is  0.177684

                             Maximum     Tolerance    Cnvgd?
         Gradient           0.098235      0.000300      NO
         Displacement       0.156677      0.001200      NO
         Energy change     *********      0.000001      NO


 New Cartesian Coordinates Obtained by Inverse Iteration

 Displacement from previous Coordinates is:  0.141029
 ----------------------------------------------------------------
             Standard Nuclear Orientation (Angstroms)
    I     Atom           X                Y                Z
 ----------------------------------------------------------------
    1      C       0.5524943802     0.1585499102     0.0000000000
    2      O      -0.6118566910    -0.0204904708     0.0000000000
    3      H       1.3082217380    -0.6493227702     0.0000000000
 ----------------------------------------------------------------
 Molecular Point Group                 Cs    NOp =  2
 Largest Abelian Subgroup              Cs    NOp =  2
 Nuclear Repulsion Energy =    26.5271684210 hartrees
 There are        8 alpha and        7 beta electrons
 Applying Cartesian multipole field
    Component          Value
    ---------          -----
     (2,0,0)        1.00000E-11
     (0,2,0)        2.00000E-11
     (0,0,2)       -3.00000E-11
 Nucleus-field energy     =     0.0000000003 hartrees
 Requested basis set is non-standard
 There are 30 shells and 78 basis functions
 A cutoff of  1.0D-12 yielded    465 shell pairs
 There are      3193 function pairs (      4096 Cartesian)
 Smallest overlap matrix eigenvalue = 1.07E-03
 Guess MOs from SCF MO coefficient file
Reading MOs from coefficient file
Reading MOs from coefficient file
 An unrestricted hybrid HF-DFT SCF calculation will be
 performed using Pulay DIIS + Geometric Direct Minimization
 Exchange:     0.5679 Hartree-Fock + 1.0000 M08SO
 SCF converges when RMS gradient is below 1.0E-08
Geometry optimization detected.  Setting ReadMinima to 0
Setting SaveMinima to 0
 Inaccurate integrated density:
   Number of electrons =    15
   Numerical integral  =    14.987550834637
   Relative error      =    -0.0829944358 %
 ---------------------------------------
  Cycle       Energy        RMS Gradient
 ---------------------------------------
    1    -113.8077414928      5.93E-03 Done DIIS. Switching to GDM
    2    -113.8077656253      1.88E-02 Normal BFGS step
    3    -113.8073902764      2.86E-02 Line search: overstep
    4    -113.8083162435      4.10E-03 Normal BFGS step
    5    -113.8084283859      2.14E-03 Normal BFGS step
    6    -113.8084486490      5.17E-04 Normal BFGS step
    7    -113.8084509575      2.09E-04 Normal BFGS step
    8    -113.8084512700      9.59E-05 Normal BFGS step
    9    -113.8084513134      4.65E-05 Normal BFGS step
   10    -113.8084513225      1.59E-05 Normal BFGS step
   11    -113.8084513241      7.58E-06 Normal BFGS step
   12    -113.8084513243      2.26E-06 Normal BFGS step
   13    -113.8084513244      9.66E-07 Normal BFGS step
   14    -113.8084513244      1.78E-07 Normal BFGS step
   GDM::WARNING energy changes are now smaller than effective accuracy.
   GDM::        calculation will continue, but THRESH should be increased
   GDM::        or SCF_CONVERGENCE decreased.
   GDM::        effective_thresh =   3.274680249187867E-010
   15    -113.8084513244      4.68E-08 Normal BFGS step
   GDM::WARNING energy changes are now smaller than effective accuracy.
   GDM::        calculation will continue, but THRESH should be increased
   GDM::        or SCF_CONVERGENCE decreased.
   GDM::        effective_thresh =   3.274680249187867E-010
   16    -113.8084513244      1.00E-08 Normal BFGS step
   GDM::WARNING energy changes are now smaller than effective accuracy.
   GDM::        calculation will continue, but THRESH should be increased
   GDM::        or SCF_CONVERGENCE decreased.
   GDM::        effective_thresh =   3.274680249187867E-010
   17    -113.8084513244      3.10E-09 Convergence criterion met
 ---------------------------------------
 <S^2> = 0.7539
 SCF time:  CPU 42.95 s  wall 46.43 s
 SCF   energy in the final basis set = -113.8084513244
 Total energy in the final basis set = -113.8084513244
 Analysis of SCF Wavefunction
 
 --------------------------------------------------------------
             Orbital Energies (a.u.) and Symmetries
 --------------------------------------------------------------
 
 Alpha MOs, Unrestricted
 -- Occupied --                  
-19.638 -10.612  -1.231  -0.719  -0.602  -0.537  -0.521  -0.292
  1 A'    2 A'    3 A'    4 A'    5 A'    6 A'    1 A"    7 A'                 
 -- Virtual --                   
 -0.020  -0.014   0.022   0.043   0.052   0.099   0.170   0.176
  2 A"    8 A'    9 A'   10 A'    3 A"   11 A'   12 A'   13 A'                 
  0.205   0.216   0.281   0.380   0.474   0.531   0.537   0.583
  4 A"   14 A'   15 A'   16 A'   17 A'   18 A'    5 A"    6 A"                 
  0.615   0.674   0.789   0.804   0.919   0.961   0.982   1.031
 19 A'   20 A'   21 A'    7 A"   22 A'   23 A'    8 A"   24 A'                 
  1.074   1.125   1.337   1.391   1.477   1.628   1.669   1.953
  9 A"   25 A'   26 A'   27 A'   28 A'   10 A"   29 A'   11 A"                 
  2.093   2.299   2.411   2.713   2.777   2.791   2.825   2.890
 30 A'   31 A'   32 A'   12 A"   13 A"   33 A'   34 A'   14 A"                 
  2.992   3.028   3.124   3.166   3.184   3.355   3.477   3.537
 35 A'   36 A'   15 A"   37 A'   16 A"   38 A'   39 A'   17 A"                 
  3.655   4.006   4.037   4.188   4.859   4.978   5.003   5.062
 40 A'   18 A"   41 A'   42 A'   43 A'   19 A"   44 A'   20 A"                 
  5.084   5.333   5.356   5.672   6.233   6.358   6.711   6.734
 45 A'   46 A'   21 A"   47 A'   22 A"   48 A'   23 A"   49 A'                 
  6.885   7.067   7.142   7.463  24.254  49.817
 50 A'   24 A"   51 A'   52 A'   53 A'   54 A'                                 
 
 Beta MOs, Unrestricted
 -- Occupied --                  
-19.628 -10.599  -1.210  -0.688  -0.572  -0.515  -0.475
  1 A'    2 A'    3 A'    4 A'    5 A'    1 A"    6 A'                         
 -- Virtual --                   
 -0.055  -0.031  -0.015   0.015   0.031   0.052   0.089   0.165
  7 A'    8 A'    2 A"    9 A'   10 A'    3 A"   11 A'   12 A'                 
  0.178   0.201   0.214   0.280   0.387   0.490   0.541   0.545
 13 A'    4 A"   14 A'   15 A'   16 A'   17 A'   18 A'    5 A"                 
  0.602   0.635   0.699   0.800   0.816   0.932   0.963   0.994
  6 A"   19 A'   20 A'   21 A'    7 A"   22 A'   23 A'    8 A"                 
  1.047   1.072   1.151   1.349   1.418   1.484   1.642   1.684
 24 A'    9 A"   25 A'   26 A'   27 A'   28 A'   10 A"   29 A'                 
  1.950   2.117   2.298   2.425   2.717   2.801   2.829   2.892
 11 A"   30 A'   31 A'   32 A'   12 A"   13 A"   33 A'   34 A'                 
  2.926   3.011   3.048   3.197   3.237   3.243   3.371   3.533
 14 A"   35 A'   36 A'   15 A"   37 A'   16 A"   38 A'   39 A'                 
  3.542   3.676   4.009   4.047   4.222   4.884   4.982   5.002
 17 A"   40 A'   18 A"   41 A'   42 A'   43 A'   19 A"   44 A'                 
  5.054   5.128   5.308   5.351   5.643   6.214   6.376   6.725
 20 A"   45 A'   46 A'   21 A"   47 A'   22 A"   48 A'   23 A"                 
  6.740   6.868   7.047   7.145   7.445  24.262  49.824
 49 A'   50 A'   24 A"   51 A'   52 A'   53 A'   54 A'                         
 --------------------------------------------------------------
 
          Ground-State Mulliken Net Atomic Charges

     Atom                 Charge (a.u.)    Spin (a.u.)
  --------------------------------------------------------
      1 C                    -0.014814       0.605889
      2 O                    -0.120106       0.242845
      3 H                     0.134920       0.151266
  --------------------------------------------------------
  Sum of atomic charges =     0.000000
  Sum of spin   charges =     1.000000

 -----------------------------------------------------------------
                    Cartesian Multipole Moments
 -----------------------------------------------------------------
    Charge (ESU x 10^10)
                 0.0000
    Dipole Moment (Debye)
         X       1.6457      Y      -0.8216      Z       0.0000
       Tot       1.8394
    Quadrupole Moments (Debye-Ang)
        XX     -11.3853     XY      -1.1867     YY     -12.0116
        XZ       0.0000     YZ       0.0000     ZZ     -11.1229
    Octopole Moments (Debye-Ang^2)
       XXX      -0.7337    XXY      -1.9868    XYY      -0.9589
       YYY      -2.2886    XXZ       0.0000    XYZ       0.0000
       YYZ       0.0000    XZZ      -0.6071    YZZ      -0.5429
       ZZZ       0.0000
    Hexadecapole Moments (Debye-Ang^3)
      XXXX     -40.2027   XXXY      -2.2566   XXYY      -9.8237
      XYYY      -1.3154   YYYY     -16.3803   XXXZ       0.0000
      XXYZ       0.0000   XYYZ       0.0000   YYYZ       0.0000
      XXZZ      -8.5528   XYZZ      -0.1846   YYZZ      -4.4751
      XZZZ       0.0000   YZZZ       0.0000   ZZZZ     -10.3527
 -----------------------------------------------------------------
 Calculating analytic gradient of the SCF energy
 Gradient of Coulomb and Exchange Energy
            1           2           3
    1  -9.1359988  11.1166123  -1.9806135
    2  -2.9763445   1.3692995   1.6070450
    3   0.0000000  -0.0000000  -0.0000000
 Gradient of SCF Energy
            1           2           3
    1   0.0225924  -0.0151986  -0.0073939
    2  -0.0039690  -0.0029402   0.0069092
    3   0.0000000  -0.0000000   0.0000000
 Max gradient component =       2.259E-02
 RMS gradient           =       9.822E-03
 Gradient time:  CPU 3.58 s  wall 3.54 s
 Geometry Optimization Parameters
   NAtoms,    NIC,     NZ,  NCons,   NDum,   NFix, NCnnct, MaxDiis
        3       9       0       0       0       0       0       0

 Cartesian Hessian Update
 Hessian Updated using BFGS Update


** GEOMETRY OPTIMIZATION IN DELOCALIZED INTERNAL COORDINATES **
   Searching for a Minimum

   Optimization Cycle:   2

                       Coordinates (Angstroms)
     ATOM                X               Y               Z
      1  C         0.5524943802    0.1585499102    0.0000000000
      2  O        -0.6118566910   -0.0204904708    0.0000000000
      3  H         1.3082217380   -0.6493227702    0.0000000000
   Point Group: cs    Number of degrees of freedom:     3


   Energy is   -113.808451324

 GETINT wrote B to file, NVib is            3
 Hessian Updated using BFGS Update

  3 Hessian modes will be used to form the next step
  Hessian Eigenvalues:
     0.161315    0.391656    0.876474

 Minimum Search - Taking Simple RFO Step
 Searching for Lamda that Minimizes Along All modes
 Value Taken    Lamda =  -0.00059640
 Step Taken.  Stepsize is  0.035197

                             Maximum     Tolerance    Cnvgd?
         Gradient           0.018227      0.000300      NO
         Displacement       0.033715      0.001200      NO
         Energy change     -0.008983      0.000001      NO


 New Cartesian Coordinates Obtained by Inverse Iteration

 Displacement from previous Coordinates is:  0.024442
 ----------------------------------------------------------------
             Standard Nuclear Orientation (Angstroms)
    I     Atom           X                Y                Z
 ----------------------------------------------------------------
    1      C       0.5435561672     0.1592335146     0.0000000000
    2      O      -0.6107519883    -0.0173602359     0.0000000000
    3      H       1.3160552483    -0.6531366095     0.0000000000
 ----------------------------------------------------------------
 Molecular Point Group                 Cs    NOp =  2
 Largest Abelian Subgroup              Cs    NOp =  2
 Nuclear Repulsion Energy =    26.6706315793 hartrees
 There are        8 alpha and        7 beta electrons
 Applying Cartesian multipole field
    Component          Value
    ---------          -----
     (2,0,0)        1.00000E-11
     (0,2,0)        2.00000E-11
     (0,0,2)       -3.00000E-11
 Nucleus-field energy     =     0.0000000003 hartrees
 Requested basis set is non-standard
 There are 30 shells and 78 basis functions
 A cutoff of  1.0D-12 yielded    465 shell pairs
 There are      3193 function pairs (      4096 Cartesian)
 Smallest overlap matrix eigenvalue = 1.03E-03
 Guess MOs from SCF MO coefficient file
Reading MOs from coefficient file
Reading MOs from coefficient file
 An unrestricted hybrid HF-DFT SCF calculation will be
 performed using Pulay DIIS + Geometric Direct Minimization
 Exchange:     0.5679 Hartree-Fock + 1.0000 M08SO
 SCF converges when RMS gradient is below 1.0E-08
Geometry optimization detected.  Setting ReadMinima to 0
Setting SaveMinima to 0
 ---------------------------------------
  Cycle       Energy        RMS Gradient
 ---------------------------------------
    1    -113.8059487088      1.34E-03 Done DIIS. Switching to GDM
    2    -113.8087243032      3.79E-03 Normal BFGS step
    3    -113.8087090311      5.96E-03 Line search: overstep
    4    -113.8087521124      8.62E-04 Normal BFGS step
    5    -113.8087578640      5.59E-04 Normal BFGS step
    6    -113.8087589910      1.18E-04 Normal BFGS step
    7    -113.8087591041      3.29E-05 Normal BFGS step
    8    -113.8087591168      1.13E-05 Normal BFGS step
    9    -113.8087591176      5.01E-06 Normal BFGS step
   10    -113.8087591176      2.23E-06 Normal BFGS step
   11    -113.8087591177      6.05E-07 Normal BFGS step
   12    -113.8087591177      2.43E-07 Normal BFGS step
   13    -113.8087591177      1.14E-07 Normal BFGS step
   GDM::WARNING energy changes are now smaller than effective accuracy.
   GDM::        calculation will continue, but THRESH should be increased
   GDM::        or SCF_CONVERGENCE decreased.
   GDM::        effective_thresh =   4.675474410409386E-009
   14    -113.8087591177      3.47E-08 Normal BFGS step
   GDM::WARNING energy changes are now smaller than effective accuracy.
   GDM::        calculation will continue, but THRESH should be increased
   GDM::        or SCF_CONVERGENCE decreased.
   GDM::        effective_thresh =   4.675474410409386E-009
   15    -113.8087591177      8.41E-09 Convergence criterion met
 ---------------------------------------
 <S^2> = 0.7538
 SCF time:  CPU 36.73 s  wall 37.50 s
 SCF   energy in the final basis set = -113.8087591177
 Total energy in the final basis set = -113.8087591177
 Analysis of SCF Wavefunction
 
 --------------------------------------------------------------
             Orbital Energies (a.u.) and Symmetries
 --------------------------------------------------------------
 
 Alpha MOs, Unrestricted
 -- Occupied --                  
-19.638 -10.611  -1.237  -0.715  -0.604  -0.539  -0.525  -0.288
  1 A'    2 A'    3 A'    4 A'    5 A'    6 A'    1 A"    7 A'                 
 -- Virtual --                   
 -0.018  -0.014   0.022   0.043   0.053   0.098   0.169   0.174
  2 A"    8 A'    9 A'   10 A'    3 A"   11 A'   12 A'   13 A'                 
  0.204   0.217   0.281   0.382   0.471   0.532   0.537   0.582
  4 A"   14 A'   15 A'   16 A'   17 A'   18 A'    5 A"    6 A"                 
  0.618   0.674   0.797   0.805   0.916   0.960   0.979   1.028
 19 A'   20 A'   21 A'    7 A"   22 A'   23 A'    8 A"   24 A'                 
  1.073   1.124   1.339   1.387   1.477   1.630   1.673   1.959
  9 A"   25 A'   26 A'   27 A'   28 A'   10 A"   29 A'   11 A"                 
  2.098   2.311   2.418   2.712   2.777   2.790   2.823   2.894
 30 A'   31 A'   32 A'   12 A"   13 A"   33 A'   34 A'   14 A"                 
  2.989   3.025   3.121   3.162   3.183   3.351   3.479   3.552
 35 A'   36 A'   15 A"   37 A'   16 A"   38 A'   39 A'   17 A"                 
  3.642   3.988   4.057   4.174   4.833   4.978   5.000   5.064
 40 A'   18 A"   41 A'   42 A'   43 A'   19 A"   44 A'   20 A"                 
  5.087   5.339   5.369   5.674   6.270   6.394   6.712   6.736
 45 A'   46 A'   21 A"   47 A'   22 A"   48 A'   23 A"   49 A'                 
  6.903   7.065   7.141   7.470  24.252  49.835
 50 A'   24 A"   51 A'   52 A'   53 A'   54 A'                                 
 
 Beta MOs, Unrestricted
 -- Occupied --                  
-19.628 -10.598  -1.216  -0.684  -0.573  -0.519  -0.479
  1 A'    2 A'    3 A'    4 A'    5 A'    1 A"    6 A'                         
 -- Virtual --                   
 -0.054  -0.032  -0.014   0.015   0.031   0.054   0.087   0.165
  7 A'    8 A'    2 A"    9 A'   10 A'    3 A"   11 A'   12 A'                 
  0.178   0.200   0.214   0.280   0.388   0.488   0.541   0.545
 13 A'    4 A"   14 A'   15 A'   16 A'   17 A'   18 A'    5 A"                 
  0.602   0.638   0.698   0.808   0.817   0.930   0.962   0.991
  6 A"   19 A'   20 A'   21 A'    7 A"   22 A'   23 A'    8 A"                 
  1.044   1.072   1.151   1.351   1.414   1.485   1.644   1.688
 24 A'    9 A"   25 A'   26 A'   27 A'   28 A'   10 A"   29 A'                 
  1.956   2.121   2.308   2.432   2.717   2.801   2.829   2.892
 11 A"   30 A'   31 A'   32 A'   12 A"   13 A"   33 A'   34 A'                 
  2.930   3.007   3.045   3.195   3.232   3.243   3.364   3.533
 14 A"   35 A'   36 A'   15 A"   37 A'   16 A"   38 A'   39 A'                 
  3.556   3.671   3.991   4.068   4.208   4.861   4.982   4.999
 17 A"   40 A'   18 A"   41 A'   42 A'   43 A'   19 A"   44 A'                 
  5.055   5.131   5.314   5.364   5.646   6.253   6.413   6.725
 20 A"   45 A'   46 A'   21 A"   47 A'   22 A"   48 A'   23 A"                 
  6.742   6.887   7.045   7.144   7.452  24.260  49.842
 49 A'   50 A'   24 A"   51 A'   52 A'   53 A'   54 A'                         
 --------------------------------------------------------------
 
          Ground-State Mulliken Net Atomic Charges

     Atom                 Charge (a.u.)    Spin (a.u.)
  --------------------------------------------------------
      1 C                    -0.015586       0.600271
      2 O                    -0.114504       0.237005
      3 H                     0.130090       0.162724
  --------------------------------------------------------
  Sum of atomic charges =     0.000000
  Sum of spin   charges =     1.000000

 -----------------------------------------------------------------
                    Cartesian Multipole Moments
 -----------------------------------------------------------------
    Charge (ESU x 10^10)
                 0.0000
    Dipole Moment (Debye)
         X       1.5955      Y      -0.8093      Z       0.0000
       Tot       1.7890
    Quadrupole Moments (Debye-Ang)
        XX     -11.4171     XY      -1.1691     YY     -12.0256
        XZ       0.0000     YZ       0.0000     ZZ     -11.1147
    Octopole Moments (Debye-Ang^2)
       XXX      -0.7530    XXY      -1.9597    XYY      -0.9949
       YYY      -2.2827    XXZ       0.0000    XYZ       0.0000
       YYZ       0.0000    XZZ      -0.6217    YZZ      -0.5446
       ZZZ       0.0000
    Hexadecapole Moments (Debye-Ang^3)
      XXXX     -40.1443   XXXY      -2.0908   XXYY      -9.8688
      XYYY      -1.1563   YYYY     -16.5556   XXXZ       0.0000
      XXYZ       0.0000   XYYZ       0.0000   YYYZ       0.0000
      XXZZ      -8.5503   XYZZ      -0.1379   YYZZ      -4.5001
      XZZZ       0.0000   YZZZ       0.0000   ZZZZ     -10.3360
 -----------------------------------------------------------------
 Calculating analytic gradient of the SCF energy
 Gradient of Coulomb and Exchange Energy
            1           2           3
    1  -9.2152252  11.1897625  -1.9745372
    2  -2.9283432   1.3681534   1.5601898
    3   0.0000000  -0.0000000   0.0000000
 Gradient of SCF Energy
            1           2           3
    1  -0.0010499   0.0029950  -0.0019451
    2  -0.0024648   0.0004658   0.0019990
    3   0.0000000  -0.0000000  -0.0000000
 Max gradient component =       2.995E-03
 RMS gradient           =       1.638E-03
 Gradient time:  CPU 3.62 s  wall 3.65 s
 Geometry Optimization Parameters
   NAtoms,    NIC,     NZ,  NCons,   NDum,   NFix, NCnnct, MaxDiis
        3       9       0       0       0       0       0       0

 Cartesian Hessian Update
 Hessian Updated using BFGS Update


** GEOMETRY OPTIMIZATION IN DELOCALIZED INTERNAL COORDINATES **
   Searching for a Minimum

   Optimization Cycle:   3

                       Coordinates (Angstroms)
     ATOM                X               Y               Z
      1  C         0.5435561672    0.1592335146    0.0000000000
      2  O        -0.6107519883   -0.0173602359    0.0000000000
      3  H         1.3160552483   -0.6531366095    0.0000000000
   Point Group: cs    Number of degrees of freedom:     3


   Energy is   -113.808759118

 GETINT wrote B to file, NVib is            3
 Hessian Updated using BFGS Update

  3 Hessian modes will be used to form the next step
  Hessian Eigenvalues:
     0.161105    0.310764    1.071275

 Minimum Search - Taking Simple RFO Step
 Searching for Lamda that Minimizes Along All modes
 Value Taken    Lamda =  -0.00002974
 Step Taken.  Stepsize is  0.008532

                             Maximum     Tolerance    Cnvgd?
         Gradient           0.003304      0.000300      NO
         Displacement       0.005873      0.001200      NO
         Energy change     -0.000308      0.000001      NO


 New Cartesian Coordinates Obtained by Inverse Iteration

 Displacement from previous Coordinates is:  0.007565
 ----------------------------------------------------------------
             Standard Nuclear Orientation (Angstroms)
    I     Atom           X                Y                Z
 ----------------------------------------------------------------
    1      C       0.5427373127     0.1602326125     0.0000000000
    2      O      -0.6127039796    -0.0167714678     0.0000000000
    3      H       1.3188260942    -0.6547244755     0.0000000000
 ----------------------------------------------------------------
 Molecular Point Group                 Cs    NOp =  2
 Largest Abelian Subgroup              Cs    NOp =  2
 Nuclear Repulsion Energy =    26.6323885112 hartrees
 There are        8 alpha and        7 beta electrons
 Applying Cartesian multipole field
    Component          Value
    ---------          -----
     (2,0,0)        1.00000E-11
     (0,2,0)        2.00000E-11
     (0,0,2)       -3.00000E-11
 Nucleus-field energy     =     0.0000000003 hartrees
 Requested basis set is non-standard
 There are 30 shells and 78 basis functions
 A cutoff of  1.0D-12 yielded    465 shell pairs
 There are      3193 function pairs (      4096 Cartesian)
 Smallest overlap matrix eigenvalue = 1.04E-03
 Guess MOs from SCF MO coefficient file
Reading MOs from coefficient file
Reading MOs from coefficient file
 An unrestricted hybrid HF-DFT SCF calculation will be
 performed using Pulay DIIS + Geometric Direct Minimization
 Exchange:     0.5679 Hartree-Fock + 1.0000 M08SO
 SCF converges when RMS gradient is below 1.0E-08
Geometry optimization detected.  Setting ReadMinima to 0
Setting SaveMinima to 0
 Inaccurate integrated density:
   Number of electrons =    15
   Numerical integral  =    14.997616971783
   Relative error      =    -0.0158868548 %
 ---------------------------------------
  Cycle       Energy        RMS Gradient
 ---------------------------------------
    1    -113.8078485537      1.75E-04 Done DIIS. Switching to GDM
    2    -113.8087755332      2.91E-04 Normal BFGS step
    3    -113.8087758956      2.95E-04 Normal BFGS step
    4    -113.8087760470      1.57E-04 Normal BFGS step
    5    -113.8087761016      3.86E-05 Normal BFGS step
    6    -113.8087761109      1.13E-05 Normal BFGS step
    7    -113.8087761114      3.33E-06 Normal BFGS step
    8    -113.8087761115      1.07E-06 Normal BFGS step
    9    -113.8087761115      3.85E-07 Normal BFGS step
   GDM::WARNING energy changes are now smaller than effective accuracy.
   GDM::        calculation will continue, but THRESH should be increased
   GDM::        or SCF_CONVERGENCE decreased.
   GDM::        effective_thresh =   8.000000000000000E-011
   10    -113.8087761115      2.19E-07 Normal BFGS step
   GDM::WARNING energy changes are now smaller than effective accuracy.
   GDM::        calculation will continue, but THRESH should be increased
   GDM::        or SCF_CONVERGENCE decreased.
   GDM::        effective_thresh =   8.000000000000000E-011
   11    -113.8087761115      3.90E-08 Normal BFGS step
   12    -113.8087761115      2.10E-08 Normal BFGS step
   13    -113.8087761115      5.31E-09 Convergence criterion met
 ---------------------------------------
 <S^2> = 0.7538
 SCF time:  CPU 31.74 s  wall 32.73 s
 SCF   energy in the final basis set = -113.8087761115
 Total energy in the final basis set = -113.8087761115
 Analysis of SCF Wavefunction
 
 --------------------------------------------------------------
             Orbital Energies (a.u.) and Symmetries
 --------------------------------------------------------------
 
 Alpha MOs, Unrestricted
 -- Occupied --                  
-19.638 -10.612  -1.236  -0.714  -0.603  -0.539  -0.525  -0.289
  1 A'    2 A'    3 A'    4 A'    5 A'    6 A'    1 A"    7 A'                 
 -- Virtual --                   
 -0.018  -0.014   0.022   0.043   0.053   0.098   0.169   0.173
  2 A"    8 A'    9 A'   10 A'    3 A"   11 A'   12 A'   13 A'                 
  0.204   0.217   0.280   0.382   0.470   0.531   0.537   0.582
  4 A"   14 A'   15 A'   16 A'   17 A'   18 A'    5 A"    6 A"                 
  0.618   0.673   0.797   0.804   0.916   0.960   0.978   1.028
 19 A'   20 A'   21 A'    7 A"   22 A'   23 A'    8 A"   24 A'                 
  1.073   1.123   1.337   1.384   1.477   1.629   1.673   1.958
  9 A"   25 A'   26 A'   27 A'   28 A'   10 A"   29 A'   11 A"                 
  2.097   2.314   2.417   2.712   2.776   2.790   2.822   2.893
 30 A'   31 A'   32 A'   12 A"   13 A"   33 A'   34 A'   14 A"                 
  2.990   3.024   3.121   3.161   3.183   3.348   3.479   3.550
 35 A'   36 A'   15 A"   37 A'   16 A"   38 A'   39 A'   17 A"                 
  3.636   3.982   4.052   4.168   4.827   4.977   4.999   5.063
 40 A'   18 A"   41 A'   42 A'   43 A'   19 A"   44 A'   20 A"                 
  5.086   5.337   5.366   5.666   6.266   6.387   6.711   6.736
 45 A'   46 A'   21 A"   47 A'   22 A"   48 A'   23 A"   49 A'                 
  6.899   7.065   7.141   7.469  24.245  49.833
 50 A'   24 A"   51 A'   52 A'   53 A'   54 A'                                 
 
 Beta MOs, Unrestricted
 -- Occupied --                  
-19.628 -10.599  -1.216  -0.684  -0.573  -0.519  -0.479
  1 A'    2 A'    3 A'    4 A'    5 A'    1 A"    6 A'                         
 -- Virtual --                   
 -0.054  -0.032  -0.014   0.015   0.031   0.053   0.087   0.165
  7 A'    8 A'    2 A"    9 A'   10 A'    3 A"   11 A'   12 A'                 
  0.177   0.200   0.214   0.280   0.387   0.487   0.541   0.544
 13 A'    4 A"   14 A'   15 A'   16 A'   17 A'   18 A'    5 A"                 
  0.601   0.638   0.697   0.807   0.816   0.930   0.962   0.990
  6 A"   19 A'   20 A'   21 A'    7 A"   22 A'   23 A'    8 A"                 
  1.044   1.072   1.149   1.350   1.411   1.485   1.643   1.688
 24 A'    9 A"   25 A'   26 A'   27 A'   28 A'   10 A"   29 A'                 
  1.955   2.120   2.311   2.431   2.717   2.801   2.828   2.891
 11 A"   30 A'   31 A'   32 A'   12 A"   13 A"   33 A'   34 A'                 
  2.930   3.006   3.043   3.195   3.230   3.243   3.361   3.531
 14 A"   35 A'   36 A'   15 A"   37 A'   16 A"   38 A'   39 A'                 
  3.554   3.667   3.985   4.063   4.202   4.854   4.981   4.998
 17 A"   40 A'   18 A"   41 A'   42 A'   43 A'   19 A"   44 A'                 
  5.055   5.129   5.312   5.362   5.638   6.248   6.407   6.724
 20 A"   45 A'   46 A'   21 A"   47 A'   22 A"   48 A'   23 A"                 
  6.741   6.883   7.045   7.143   7.451  24.253  49.839
 49 A'   50 A'   24 A"   51 A'   52 A'   53 A'   54 A'                         
 --------------------------------------------------------------
 
          Ground-State Mulliken Net Atomic Charges

     Atom                 Charge (a.u.)    Spin (a.u.)
  --------------------------------------------------------
      1 C                    -0.014712       0.598601
      2 O                    -0.114768       0.236395
      3 H                     0.129480       0.165005
  --------------------------------------------------------
  Sum of atomic charges =     0.000000
  Sum of spin   charges =     1.000000

 -----------------------------------------------------------------
                    Cartesian Multipole Moments
 -----------------------------------------------------------------
    Charge (ESU x 10^10)
                 0.0000
    Dipole Moment (Debye)
         X       1.5986      Y      -0.8064      Z       0.0000
       Tot       1.7904
    Quadrupole Moments (Debye-Ang)
        XX     -11.4206     XY      -1.1662     YY     -12.0303
        XZ       0.0000     YZ       0.0000     ZZ     -11.1225
    Octopole Moments (Debye-Ang^2)
       XXX      -0.7143    XXY      -1.9650    XYY      -0.9817
       YYY      -2.2923    XXZ       0.0000    XYZ       0.0000
       YYZ       0.0000    XZZ      -0.6137    YZZ      -0.5464
       ZZZ       0.0000
    Hexadecapole Moments (Debye-Ang^3)
      XXXX     -40.2455   XXXY      -2.0724   XXYY      -9.8869
      XYYY      -1.1316   YYYY     -16.5909   XXXZ       0.0000
      XXYZ       0.0000   XYYZ       0.0000   YYYZ       0.0000
      XXZZ      -8.5741   XYZZ      -0.1280   YYZZ      -4.5078
      XZZZ       0.0000   YZZZ       0.0000   ZZZZ     -10.3466
 -----------------------------------------------------------------
 Calculating analytic gradient of the SCF energy
 Gradient of Coulomb and Exchange Energy
            1           2           3
    1  -9.2109601  11.1855396  -1.9745794
    2  -2.9217182   1.3680255   1.5536927
    3  -0.0000000   0.0000000   0.0000000
 Gradient of SCF Energy
            1           2           3
    1  -0.0000280   0.0002561  -0.0002281
    2  -0.0006278   0.0002020   0.0004258
    3  -0.0000000   0.0000000  -0.0000000
 Max gradient component =       6.278E-04
 RMS gradient           =       2.857E-04
 Gradient time:  CPU 3.52 s  wall 3.54 s
 Geometry Optimization Parameters
   NAtoms,    NIC,     NZ,  NCons,   NDum,   NFix, NCnnct, MaxDiis
        3       9       0       0       0       0       0       0

 Cartesian Hessian Update
 Hessian Updated using BFGS Update


** GEOMETRY OPTIMIZATION IN DELOCALIZED INTERNAL COORDINATES **
   Searching for a Minimum

   Optimization Cycle:   4

                       Coordinates (Angstroms)
     ATOM                X               Y               Z
      1  C         0.5427373127    0.1602326125    0.0000000000
      2  O        -0.6127039796   -0.0167714678    0.0000000000
      3  H         1.3188260942   -0.6547244755    0.0000000000
   Point Group: cs    Number of degrees of freedom:     3


   Energy is   -113.808776111

 GETINT wrote B to file, NVib is            3
 Hessian Updated using BFGS Update

  3 Hessian modes will be used to form the next step
  Hessian Eigenvalues:
     0.160681    0.270049    1.056066

 Minimum Search - Taking Simple RFO Step
 Searching for Lamda that Minimizes Along All modes
 Value Taken    Lamda =  -0.00000165
 Step Taken.  Stepsize is  0.002908

                             Maximum     Tolerance    Cnvgd?
         Gradient           0.000619      0.000300      NO
         Displacement       0.002565      0.001200      NO
         Energy change     -0.000017      0.000001      NO


 New Cartesian Coordinates Obtained by Inverse Iteration

 Displacement from previous Coordinates is:  0.002258
 ----------------------------------------------------------------
             Standard Nuclear Orientation (Angstroms)
    I     Atom           X                Y                Z
 ----------------------------------------------------------------
    1      C       0.5427512025     0.1611982820     0.0000000000
    2      O      -0.6126063488    -0.0171975802     0.0000000000
    3      H       1.3187145735    -0.6552640326     0.0000000000
 ----------------------------------------------------------------
 Molecular Point Group                 Cs    NOp =  2
 Largest Abelian Subgroup              Cs    NOp =  2
 Nuclear Repulsion Energy =    26.6276461304 hartrees
 There are        8 alpha and        7 beta electrons
 Applying Cartesian multipole field
    Component          Value
    ---------          -----
     (2,0,0)        1.00000E-11
     (0,2,0)        2.00000E-11
     (0,0,2)       -3.00000E-11
 Nucleus-field energy     =     0.0000000003 hartrees
 Requested basis set is non-standard
 There are 30 shells and 78 basis functions
 A cutoff of  1.0D-12 yielded    465 shell pairs
 There are      3193 function pairs (      4096 Cartesian)
 Smallest overlap matrix eigenvalue = 1.04E-03
 Guess MOs from SCF MO coefficient file
Reading MOs from coefficient file
Reading MOs from coefficient file
 An unrestricted hybrid HF-DFT SCF calculation will be
 performed using Pulay DIIS + Geometric Direct Minimization
 Exchange:     0.5679 Hartree-Fock + 1.0000 M08SO
 SCF converges when RMS gradient is below 1.0E-08
Geometry optimization detected.  Setting ReadMinima to 0
Setting SaveMinima to 0
 ---------------------------------------
  Cycle       Energy        RMS Gradient
 ---------------------------------------
    1    -113.8085487428      8.96E-05 Done DIIS. Switching to GDM
    2    -113.8087768483      1.46E-04 Normal BFGS step
    3    -113.8087769354      8.55E-05 Normal BFGS step
    4    -113.8087769433      7.26E-05 Normal BFGS step
    5    -113.8087769513      1.34E-05 Normal BFGS step
    6    -113.8087769521      6.10E-06 Normal BFGS step
    7    -113.8087769522      2.75E-06 Normal BFGS step
    8    -113.8087769522      1.08E-06 Normal BFGS step
    9    -113.8087769522      2.92E-07 Normal BFGS step
   GDM::WARNING energy changes are now smaller than effective accuracy.
   GDM::        calculation will continue, but THRESH should be increased
   GDM::        or SCF_CONVERGENCE decreased.
   GDM::        effective_thresh =   8.000000000000000E-011
   10    -113.8087769522      8.02E-08 Normal BFGS step
   11    -113.8087769522      2.79E-08 Normal BFGS step
   GDM::WARNING energy changes are now smaller than effective accuracy.
   GDM::        calculation will continue, but THRESH should be increased
   GDM::        or SCF_CONVERGENCE decreased.
   GDM::        effective_thresh =   8.000000000000000E-011
   12    -113.8087769522      1.48E-08 Normal BFGS step
   GDM::WARNING energy changes are now smaller than effective accuracy.
   GDM::        calculation will continue, but THRESH should be increased
   GDM::        or SCF_CONVERGENCE decreased.
   GDM::        effective_thresh =   8.000000000000000E-011
   13    -113.8087769522      3.66E-09 Convergence criterion met
 ---------------------------------------
 <S^2> = 0.7538
 SCF time:  CPU 31.76 s  wall 31.96 s
 SCF   energy in the final basis set = -113.8087769522
 Total energy in the final basis set = -113.8087769522
 Analysis of SCF Wavefunction
 
 --------------------------------------------------------------
             Orbital Energies (a.u.) and Symmetries
 --------------------------------------------------------------
 
 Alpha MOs, Unrestricted
 -- Occupied --                  
-19.638 -10.612  -1.236  -0.714  -0.603  -0.539  -0.525  -0.289
  1 A'    2 A'    3 A'    4 A'    5 A'    6 A'    1 A"    7 A'                 
 -- Virtual --                   
 -0.018  -0.014   0.022   0.043   0.053   0.098   0.169   0.173
  2 A"    8 A'    9 A'   10 A'    3 A"   11 A'   12 A'   13 A'                 
  0.204   0.217   0.280   0.382   0.470   0.531   0.537   0.581
  4 A"   14 A'   15 A'   16 A'   17 A'   18 A'    5 A"    6 A"                 
  0.618   0.673   0.797   0.805   0.915   0.960   0.978   1.028
 19 A'   20 A'   21 A'    7 A"   22 A'   23 A'    8 A"   24 A'                 
  1.073   1.123   1.337   1.383   1.477   1.629   1.673   1.958
  9 A"   25 A'   26 A'   27 A'   28 A'   10 A"   29 A'   11 A"                 
  2.096   2.315   2.417   2.712   2.777   2.790   2.822   2.893
 30 A'   31 A'   32 A'   12 A"   13 A"   33 A'   34 A'   14 A"                 
  2.989   3.023   3.122   3.162   3.184   3.349   3.479   3.549
 35 A'   36 A'   15 A"   37 A'   16 A"   38 A'   39 A'   17 A"                 
  3.634   3.980   4.052   4.166   4.825   4.977   4.999   5.063
 40 A'   18 A"   41 A'   42 A'   43 A'   19 A"   44 A'   20 A"                 
  5.086   5.337   5.366   5.663   6.265   6.385   6.711   6.736
 45 A'   46 A'   21 A"   47 A'   22 A"   48 A'   23 A"   49 A'                 
  6.899   7.065   7.141   7.469  24.244  49.832
 50 A'   24 A"   51 A'   52 A'   53 A'   54 A'                                 
 
 Beta MOs, Unrestricted
 -- Occupied --                  
-19.628 -10.599  -1.216  -0.683  -0.573  -0.519  -0.479
  1 A'    2 A'    3 A'    4 A'    5 A'    1 A"    6 A'                         
 -- Virtual --                   
 -0.054  -0.032  -0.014   0.015   0.031   0.053   0.087   0.165
  7 A'    8 A'    2 A"    9 A'   10 A'    3 A"   11 A'   12 A'                 
  0.177   0.200   0.214   0.280   0.388   0.486   0.541   0.544
 13 A'    4 A"   14 A'   15 A'   16 A'   17 A'   18 A'    5 A"                 
  0.601   0.638   0.697   0.807   0.817   0.929   0.962   0.990
  6 A"   19 A'   20 A'   21 A'    7 A"   22 A'   23 A'    8 A"                 
  1.044   1.072   1.149   1.349   1.410   1.484   1.643   1.688
 24 A'    9 A"   25 A'   26 A'   27 A'   28 A'   10 A"   29 A'                 
  1.955   2.120   2.312   2.431   2.716   2.801   2.829   2.891
 11 A"   30 A'   31 A'   32 A'   12 A"   13 A"   33 A'   34 A'                 
  2.930   3.006   3.043   3.195   3.231   3.243   3.362   3.531
 14 A"   35 A'   36 A'   15 A"   37 A'   16 A"   38 A'   39 A'                 
  3.554   3.664   3.983   4.062   4.201   4.853   4.981   4.998
 17 A"   40 A'   18 A"   41 A'   42 A'   43 A'   19 A"   44 A'                 
  5.055   5.129   5.312   5.361   5.635   6.248   6.405   6.724
 20 A"   45 A'   46 A'   21 A"   47 A'   22 A"   48 A'   23 A"                 
  6.741   6.882   7.045   7.143   7.451  24.252  49.839
 49 A'   50 A'   24 A"   51 A'   52 A'   53 A'   54 A'                         
 --------------------------------------------------------------
 
          Ground-State Mulliken Net Atomic Charges

     Atom                 Charge (a.u.)    Spin (a.u.)
  --------------------------------------------------------
      1 C                    -0.014857       0.597484
      2 O                    -0.114495       0.236669
      3 H                     0.129352       0.165848
  --------------------------------------------------------
  Sum of atomic charges =     0.000000
  Sum of spin   charges =     1.000000

 -----------------------------------------------------------------
                    Cartesian Multipole Moments
 -----------------------------------------------------------------
    Charge (ESU x 10^10)
                 0.0000
    Dipole Moment (Debye)
         X       1.5971      Y      -0.8047      Z       0.0000
       Tot       1.7884
    Quadrupole Moments (Debye-Ang)
        XX     -11.4238     XY      -1.1653     YY     -12.0295
        XZ       0.0000     YZ       0.0000     ZZ     -11.1241
    Octopole Moments (Debye-Ang^2)
       XXX      -0.7245    XXY      -1.9658    XYY      -0.9817
       YYY      -2.2995    XXZ       0.0000    XYZ       0.0000
       YYZ       0.0000    XZZ      -0.6156    YZZ      -0.5473
       ZZZ       0.0000
    Hexadecapole Moments (Debye-Ang^3)
      XXXX     -40.2607   XXXY      -2.0774   XXYY      -9.8873
      XYYY      -1.1413   YYYY     -16.6046   XXXZ       0.0000
      XXYZ       0.0000   XYYZ       0.0000   YYYZ       0.0000
      XXZZ      -8.5758   XYZZ      -0.1296   YYZZ      -4.5104
      XZZZ       0.0000   YZZZ       0.0000   ZZZZ     -10.3482
 -----------------------------------------------------------------
 Calculating analytic gradient of the SCF energy
 Gradient of Coulomb and Exchange Energy
            1           2           3
    1  -9.2108463  11.1813057  -1.9704594
    2  -2.9367255   1.3813888   1.5553366
    3  -0.0000000  -0.0000000   0.0000000
 Gradient of SCF Energy
            1           2           3
    1  -0.0000042   0.0000151  -0.0000109
    2  -0.0000157   0.0000271  -0.0000114
    3   0.0000000  -0.0000000  -0.0000000
 Max gradient component =       2.712E-05
 RMS gradient           =       1.281E-05
 Gradient time:  CPU 3.72 s  wall 3.65 s
 Geometry Optimization Parameters
   NAtoms,    NIC,     NZ,  NCons,   NDum,   NFix, NCnnct, MaxDiis
        3       9       0       0       0       0       0       0

 Cartesian Hessian Update
 Hessian Updated using BFGS Update


** GEOMETRY OPTIMIZATION IN DELOCALIZED INTERNAL COORDINATES **
   Searching for a Minimum

   Optimization Cycle:   5

                       Coordinates (Angstroms)
     ATOM                X               Y               Z
      1  C         0.5427512025    0.1611982820    0.0000000000
      2  O        -0.6126063488   -0.0171975802    0.0000000000
      3  H         1.3187145735   -0.6552640326    0.0000000000
   Point Group: cs    Number of degrees of freedom:     3


   Energy is   -113.808776952

 GETINT wrote B to file, NVib is            3
 Hessian Updated using BFGS Update

  3 Hessian modes will be used to form the next step
  Hessian Eigenvalues:
     0.157652    0.270451    1.052659

 Minimum Search - Taking Simple RFO Step
 Searching for Lamda that Minimizes Along All modes
 Value Taken    Lamda =   0.00000000
 Step Taken.  Stepsize is  0.000068

                             Maximum     Tolerance    Cnvgd?
         Gradient           0.000016      0.000300     YES
         Displacement       0.000058      0.001200     YES
         Energy change     -0.000001      0.000001     YES


                       Distance Matrix (Angstroms)
             C (  1)   O (  2)
   O (  2)  1.169049
   H (  3)  1.126379  2.033993
 
 Final energy is   -113.808776952197     


 ******************************
 **  OPTIMIZATION CONVERGED  **
 ******************************

Z-matrix Print:
$molecule
0 2
C 
H  1 1.126379
O  1 1.169049 2 124.765576
$end

 Analysis of SCF Wavefunction
 
 --------------------------------------------------------------
             Orbital Energies (a.u.) and Symmetries
 --------------------------------------------------------------
 
 Alpha MOs, Unrestricted
 -- Occupied --                  
-19.638 -10.612  -1.236  -0.714  -0.603  -0.539  -0.525  -0.289
  1 A'    2 A'    3 A'    4 A'    5 A'    6 A'    1 A"    7 A'                 
 -- Virtual --                   
 -0.018  -0.014   0.022   0.043   0.053   0.098   0.169   0.173
  2 A"    8 A'    9 A'   10 A'    3 A"   11 A'   12 A'   13 A'                 
  0.204   0.217   0.280   0.382   0.470   0.531   0.537   0.581
  4 A"   14 A'   15 A'   16 A'   17 A'   18 A'    5 A"    6 A"                 
  0.618   0.673   0.797   0.805   0.915   0.960   0.978   1.028
 19 A'   20 A'   21 A'    7 A"   22 A'   23 A'    8 A"   24 A'                 
  1.073   1.123   1.337   1.383   1.477   1.629   1.673   1.958
  9 A"   25 A'   26 A'   27 A'   28 A'   10 A"   29 A'   11 A"                 
  2.096   2.315   2.417   2.712   2.777   2.790   2.822   2.893
 30 A'   31 A'   32 A'   12 A"   13 A"   33 A'   34 A'   14 A"                 
  2.989   3.023   3.122   3.162   3.184   3.349   3.479   3.549
 35 A'   36 A'   15 A"   37 A'   16 A"   38 A'   39 A'   17 A"                 
  3.634   3.980   4.052   4.166   4.825   4.977   4.999   5.063
 40 A'   18 A"   41 A'   42 A'   43 A'   19 A"   44 A'   20 A"                 
  5.086   5.337   5.366   5.663   6.265   6.385   6.711   6.736
 45 A'   46 A'   21 A"   47 A'   22 A"   48 A'   23 A"   49 A'                 
  6.899   7.065   7.141   7.469  24.244  49.832
 50 A'   24 A"   51 A'   52 A'   53 A'   54 A'                                 
 
 Beta MOs, Unrestricted
 -- Occupied --                  
-19.628 -10.599  -1.216  -0.683  -0.573  -0.519  -0.479
  1 A'    2 A'    3 A'    4 A'    5 A'    1 A"    6 A'                         
 -- Virtual --                   
 -0.054  -0.032  -0.014   0.015   0.031   0.053   0.087   0.165
  7 A'    8 A'    2 A"    9 A'   10 A'    3 A"   11 A'   12 A'                 
  0.177   0.200   0.214   0.280   0.388   0.486   0.541   0.544
 13 A'    4 A"   14 A'   15 A'   16 A'   17 A'   18 A'    5 A"                 
  0.601   0.638   0.697   0.807   0.817   0.929   0.962   0.990
  6 A"   19 A'   20 A'   21 A'    7 A"   22 A'   23 A'    8 A"                 
  1.044   1.072   1.149   1.349   1.410   1.484   1.643   1.688
 24 A'    9 A"   25 A'   26 A'   27 A'   28 A'   10 A"   29 A'                 
  1.955   2.120   2.312   2.431   2.716   2.801   2.829   2.891
 11 A"   30 A'   31 A'   32 A'   12 A"   13 A"   33 A'   34 A'                 
  2.930   3.006   3.043   3.195   3.231   3.243   3.362   3.531
 14 A"   35 A'   36 A'   15 A"   37 A'   16 A"   38 A'   39 A'                 
  3.554   3.664   3.983   4.062   4.201   4.853   4.981   4.998
 17 A"   40 A'   18 A"   41 A'   42 A'   43 A'   19 A"   44 A'                 
  5.055   5.129   5.312   5.361   5.635   6.248   6.405   6.724
 20 A"   45 A'   46 A'   21 A"   47 A'   22 A"   48 A'   23 A"                 
  6.741   6.882   7.045   7.143   7.451  24.252  49.839
 49 A'   50 A'   24 A"   51 A'   52 A'   53 A'   54 A'                         
 --------------------------------------------------------------
 
          Ground-State Mulliken Net Atomic Charges

     Atom                 Charge (a.u.)    Spin (a.u.)
  --------------------------------------------------------
      1 C                    -0.014857       0.597484
      2 O                    -0.114495       0.236669
      3 H                     0.129352       0.165848
  --------------------------------------------------------
  Sum of atomic charges =     0.000000
  Sum of spin   charges =     1.000000

 -----------------------------------------------------------------
                    Cartesian Multipole Moments
 -----------------------------------------------------------------
    Charge (ESU x 10^10)
                 0.0000
    Dipole Moment (Debye)
         X       1.5971      Y      -0.8047      Z       0.0000
       Tot       1.7884
    Quadrupole Moments (Debye-Ang)
        XX     -11.4238     XY      -1.1653     YY     -12.0295
        XZ       0.0000     YZ       0.0000     ZZ     -11.1241
    Octopole Moments (Debye-Ang^2)
       XXX      -0.7245    XXY      -1.9658    XYY      -0.9817
       YYY      -2.2995    XXZ       0.0000    XYZ       0.0000
       YYZ       0.0000    XZZ      -0.6156    YZZ      -0.5473
       ZZZ       0.0000
    Hexadecapole Moments (Debye-Ang^3)
      XXXX     -40.2607   XXXY      -2.0774   XXYY      -9.8873
      XYYY      -1.1413   YYYY     -16.6046   XXXZ       0.0000
      XXYZ       0.0000   XYYZ       0.0000   YYYZ       0.0000
      XXZZ      -8.5758   XYZZ      -0.1296   YYZZ      -4.5104
      XZZZ       0.0000   YZZZ       0.0000   ZZZZ     -10.3482
 -----------------------------------------------------------------
Archival summary:
1\1\node65\OPT\ProcedureUnspecified\BasisUnspecified\111(2)\edames\MonJun2315:18:432014MonJun2315:18:432014\0\\#,OPT,ProcedureUnspecified,BasisUnspecified,\\0,2\C\H,1,1.12638\O,1,1.16905,2,124.766\\\@

 Total job time:  233.69s(wall), 221.43s(cpu) 
 Mon Jun 23 15:18:43 2014

        *************************************************************
        *                                                           *
        *  Thank you very much for using Q-Chem.  Have a nice day.  *
        *                                                           *
        *************************************************************


0 sent ACK to 0 
now end server 0 ... 
cleanup process ... done

Running Job 2 of 2 hco.in
qchem hco.in_28563.1 /scratch/edames/qchem28563/ 2
/opt/qchem/bin/mpi/mpirun_qchem -machinefile /tmp/317675.1.normal3/hostfile -np 2 /opt/qchem/exe/qcprog.exe hco.in_28563.1 /scratch/edames/qchem28563/

Process 0 of 2 is on node65.cluster - thread support 0
Process 1 of 2 is on node65.cluster - thread support 0
initial socket setup ...start
initial socket setup ...done 
now start server 0 ... 
set process cleaner
                  Welcome to Q-Chem
     A Quantum Leap Into The Future Of Chemistry


 Q-Chem 4.2, Q-Chem, Inc., Pleasanton, CA (2014).

 Y. Shao,  Z. Gan,  E. Epifanovsky,  A. T. B. Gilbert,  M. Wormit,  
 J. Kussmann,  A. W. Lange,  A. Behn,  J. Deng,  X. Feng,  D. Ghosh,  
 M. Goldey,  P. R. Horn,  L. D. Jacobson,  I. Kaliman,  R. Z. Khaliullin,  
 T. Kus,  A. Landau,  J. Liu,  E. I. Proynov,  Y. M. Rhee,  R. M. Richard,  
 M. A. Rohrdanz,  R. P. Steele,  E. J. Sundstrom,  H. L. Woodcock III,  
 P. M. Zimmerman,  D. Zuev,  B. Albrecht,  E. Alguire,  B. Austin,  
 G. J. O. Beran,  Y. A. Bernard,  E. Berquist,  K. Brandhorst,  
 K. B. Bravaya,  S. T. Brown,  D. Casanova,  C.-M. Chang,  Y. Chen,  
 S. H. Chien,  K. D. Closser,  D. L. Crittenden,  M. Diedenhofen,  
 R. A. DiStasio Jr.,  H. Do,  A. D. Dutoi,  R. G. Edgar,  S. Fatehi,  
 L. Fusti-Molnar,  A. Ghysels,  A. Golubeva-Zadorozhnaya,  J. Gomes,  
 M. W. D. Hanson-Heine,  P. H. P. Harbach,  A. W. Hauser,  E. G. Hohenstein,  
 Z. C. Holden,  T.-C. Jagau,  H. Ji,  B. Kaduk,  K. Khistyaev,  Jaehoon Kim,  
 Jihan Kim,  R. A. King,  P. Klunzinger,  D. Kosenkov,  T. Kowalczyk,  
 C. M. Krauter,  K. U. Lao,  A. Laurent,  K. V. Lawler,  S. V. Levchenko,  
 C. Y. Lin,  F. Liu,  E. Livshits,  R. C. Lochan,  A. Luenser,  P. Manohar,  
 S. F. Manzer,  S.-P. Mao,  N. Mardirossian,  A. V. Marenich,  S. A. Maurer,  
 N. J. Mayhall,  C. M. Oana,  R. Olivares-Amaya,  D. P. O'Neill,  
 J. A. Parkhill,  T. M. Perrine,  R. Peverati,  P. A. Pieniazek,  A. Prociuk,  
 D. R. Rehn,  E. Rosta,  N. J. Russ,  N. Sergueev,  S. M. Sharada,  
 S. Sharma,  D. W. Small,  A. Sodt,  T. Stein,  D. Stuck,  Y.-C. Su,  
 A. J. W. Thom,  T. Tsuchimochi,  L. Vogt,  O. Vydrov,  T. Wang,  
 M. A. Watson,  J. Wenzel,  A. White,  C. F. Williams,  V. Vanovschi,  
 S. Yeganeh,  S. R. Yost,  Z.-Q. You,  I. Y. Zhang,  X. Zhang,  Y. Zhao,  
 B. R. Brooks,  G. K. L. Chan,  D. M. Chipman,  C. J. Cramer,  
 W. A. Goddard III,  M. S. Gordon,  W. J. Hehre,  A. Klamt,  
 H. F. Schaefer III,  M. W. Schmidt,  C. D. Sherrill,  D. G. Truhlar,  
 A. Warshel,  X. Xu,  A. Aspuru-Guzik,  R. Baer,  A. T. Bell,  N. A. Besley,  
 J.-D. Chai,  A. Dreuw,  B. D. Dunietz,  T. R. Furlani,  S. R. Gwaltney,  
 C.-P. Hsu,  Y. Jung,  J. Kong,  D. S. Lambrecht,  W. Liang,  C. Ochsenfeld,  
 V. A. Rassolov,  L. V. Slipchenko,  J. E. Subotnik,  T. Van Voorhis,  
 J. M. Herbert,  A. I. Krylov,  P. M. W. Gill,  M. Head-Gordon

 Contributors to earlier versions of Q-Chem not listed above: 
 R. D. Adamson,  J. Baker,  E. F. C. Byrd,  A. K. Chakraborty,  C.-L. Cheng,  
 H. Dachsel,  R. J. Doerksen,  G. Hawkins,  A. Heyden,  S. Hirata,  
 G. Kedziora,  F. J. Keil,  C. Kelley,  P. P. Korambath,  W. Kurlancheek,  
 A. M. Lee,  M. S. Lee,  D. Liotard,  I. Lotan,  P. E. Maslen,  N. Nair,  
 D. Neuhauser,  R. Olson,  B. Peters,  J. Ritchie,  N. E. Schultz,  
 N. Shenvi,  A. C. Simmonett,  K. S. Thanthiriwatte,  Q. Wu,  W. Zhang

 Q-Chem 4.2.0 for Intel X86 Linux

 Parts of Q-Chem use Armadillo 4.100.2 (Dirt Cruiser).
 http://arma.sourceforge.net/

 Q-Chem begins on Mon Jun 23 15:18:47 2014  

Host: 
0

     Scratch files written to /scratch/edames/qchem28563.0//
 May2514 8580_ilyak 4150   
 Parallel job on  2  processors
Processing $rem in /opt/qchem/config/preferences.
 MEM_TOTAL  2000 

 Q-Chem warning in module /home/scratch/svnadmin/8580_ilyak/qchem/libgen/rem.C, line 2637:

 !!Desired Analytical derivatives not available.

 2-order derivative to be evaluated numerically with 1-order analytical derivatives

 Q-Chem warning in module /home/scratch/svnadmin/8580_ilyak/qchem/libgen/rem.C, line 2644:

 !!Parallel diagonalization not available.

Warning: disabling incdft.
 Q-Chem warning in module /home/scratch/svnadmin/8580_ilyak/qchem/forms1/BasisType.C, line 1209:

 Setting pure/cartesian flag to 2111 for general basis


Finally everything over in PARseQInput

--------------------------------------------------------------
User input:
--------------------------------------------------------------

$molecule
READ
$end

$rem
JOBTYPE Freq
iprint 10000000
XC_GRID 000075000434
EXCHANGE M08SO
BASIS gen
GUI=2
SCF_GUESS READ
$end

$basis
H  0
S  3 1.00
3.386500000000E+01 2.549380000000E-02
5.094790000000E+00 1.903730000000E-01
1.158790000000E+00 8.521610000000E-01
S  1 1.00
3.258400000000E-01 1.000000000000E+00
S  1 1.00
1.027410000000E-01 1.000000000000E+00
S  1 1.00
3.600000000000E-02 1.000000000000E+00
P  1 1.00
1.500000000000E+00 1.000000000000E+00
P  1 1.00
3.750000000000E-01 1.000000000000E+00
****
C 0
S  6 1.00
4.563240000000E+03 1.966650000000E-03
6.820240000000E+02 1.523060000000E-02
1.549730000000E+02 7.612690000000E-02
4.445530000000E+01 2.608010000000E-01
1.302900000000E+01 6.164620000000E-01
1.827730000000E+00 2.210060000000E-01
S  3 1.00
2.096420000000E+01 1.146600000000E-01
4.803310000000E+00 9.199990000000E-01
1.459330000000E+00 -3.030680000000E-03
S  1 1.00
4.834560000000E-01 1.000000000000E+00
S  1 1.00
1.455850000000E-01 1.000000000000E+00
S  1 1.00
4.380000000000E-02 1.000000000000E+00
P  3 1.00
2.096420000000E+01 4.024870000000E-02
4.803310000000E+00 2.375940000000E-01
1.459330000000E+00 8.158540000000E-01
P  1 1.00
4.834560000000E-01 1.000000000000E+00
P  1 1.00
1.455850000000E-01 1.000000000000E+00
P  1 1.00
4.380000000000E-02 1.000000000000E+00
D  1 1.00
1.252000000000E+00 1.000000000000E+00
D  1 1.00
3.130000000000E-01 1.000000000000E+00
F  1 1.00
8.000000000000E-01 1.000000000000E+00
****
O  0
S  6 1.00
8.588500000000E+03 1.895150000000E-03
1.297230000000E+03 1.438590000000E-02
2.992960000000E+02 7.073200000000E-02
8.737710000000E+01 2.400010000000E-01
2.567890000000E+01 5.947970000000E-01
3.740040000000E+00 2.808020000000E-01
S  3 1.00
4.211750000000E+01 1.138890000000E-01
9.628370000000E+00 9.208110000000E-01
2.853320000000E+00 -3.274470000000E-03
S  1 1.00
9.056610000000E-01 1.000000000000E+00
S  1 1.00
2.556110000000E-01 1.000000000000E+00
S  1 1.00
8.450000000000E-02 1.000000000000E+00
P  3 1.00
4.211750000000E+01 3.651140000000E-02
9.628370000000E+00 2.371530000000E-01
2.853320000000E+00 8.197020000000E-01
P  1 1.00
9.056610000000E-01 1.000000000000E+00
P  1 1.00
2.556110000000E-01 1.000000000000E+00
P  1 1.00
8.450000000000E-02 1.000000000000E+00
D  1 1.00
2.584000000000E+00 1.000000000000E+00
D  1 1.00
6.460000000000E-01 1.000000000000E+00
F  1 1.00
1.400000000000E+00 1.000000000000E+00
****
--------------------------------------------------------------
 ----------------------------------------------------------------
             Standard Nuclear Orientation (Angstroms)
    I     Atom           X                Y                Z
 ----------------------------------------------------------------
    1      C       0.5576225785     0.1733340513     0.0000000000
    2      O      -0.5891482143    -0.0538066623     0.0000000000
    3      H       1.3674502431    -0.6095510093     0.0000000000
 ----------------------------------------------------------------
 Molecular Point Group                 Cs    NOp =  2
 Nuclear Repulsion Energy =    26.6276461304 hartrees
 There are        8 alpha and        7 beta electrons
 Requested basis set is non-standard
 There are 30 shells and 78 basis functions

Total QAlloc Memory Limit   2000 MB
Mega-Array Size        77 MB
MEM_STATIC part        62 MB

                       Distance Matrix (Angstroms)
             C (  1)   O (  2)
   O (  2)  1.169049
   H (  3)  1.126379  2.033993
 
 A cutoff of  1.0D-11 yielded    465 shell pairs
 There are      3193 function pairs (      4096 Cartesian)
 Smallest overlap matrix eigenvalue = 1.04E-03
 Guess MOs from SCF MO coefficient file
Reading MOs from coefficient file
Reading MOs from coefficient file
 An unrestricted hybrid HF-DFT SCF calculation will be
 performed using Pulay DIIS extrapolation
 Exchange:     0.5679 Hartree-Fock + 1.0000 M08SO
 SCF converges when DIIS error is below 1.0E-08
 Inaccurate integrated density:
   Number of electrons =    15
   Numerical integral  =    14.995527343994
   Relative error      =    -0.0298177067 %
 ---------------------------------------
  Cycle       Energy         DIIS Error
 ---------------------------------------
    1    -113.8083760910      2.90E-03
    2    -113.8086974494      1.91E-04
    3    -113.8087676592      1.00E-04
    4    -113.8087735554      9.64E-05
    5    -113.8087804389      1.40E-05
    6    -113.8087810912      3.88E-06
    7    -113.8087811813      1.71E-06
    8    -113.8087811925      2.57E-07
    9    -113.8087811930      1.04E-07
   10    -113.8087811931      3.38E-08
   11    -113.8087811931      1.06E-08
   12    -113.8087811931      2.69E-09 Convergence criterion met
 ---------------------------------------
 <S^2> = 0.7538
 SCF time:  CPU 29.91 s  wall 31.06 s
 SCF   energy in the final basis set = -113.8087811931
 Total energy in the final basis set = -113.8087811931
 Analysis of SCF Wavefunction
 
 --------------------------------------------------------------
             Orbital Energies (a.u.) and Symmetries
 --------------------------------------------------------------
 
 Alpha MOs, Unrestricted
 -- Occupied --                  
-19.638 -10.612  -1.236  -0.714  -0.603  -0.539  -0.525  -0.289
  1 A'    2 A'    3 A'    4 A'    5 A'    6 A'    1 A"    7 A'                 
 -- Virtual --                   
 -0.018  -0.014   0.022   0.043   0.053   0.098   0.169   0.173
  2 A"    8 A'    9 A'   10 A'    3 A"   11 A'   12 A'   13 A'                 
  0.204   0.217   0.280   0.382   0.470   0.531   0.537   0.581
  4 A"   14 A'   15 A'   16 A'   17 A'   18 A'    5 A"    6 A"                 
  0.618   0.673   0.797   0.805   0.915   0.960   0.978   1.028
 19 A'   20 A'   21 A'    7 A"   22 A'   23 A'    8 A"   24 A'                 
  1.073   1.123   1.337   1.383   1.477   1.629   1.673   1.958
  9 A"   25 A'   26 A'   27 A'   28 A'   10 A"   29 A'   11 A"                 
  2.096   2.315   2.417   2.712   2.777   2.790   2.822   2.893
 30 A'   31 A'   32 A'   12 A"   13 A"   33 A'   34 A'   14 A"                 
  2.989   3.023   3.121   3.162   3.184   3.349   3.479   3.550
 35 A'   36 A'   15 A"   37 A'   16 A"   38 A'   39 A'   17 A"                 
  3.634   3.980   4.052   4.166   4.825   4.977   4.999   5.063
 40 A'   18 A"   41 A'   42 A'   43 A'   19 A"   44 A'   20 A"                 
  5.086   5.337   5.366   5.663   6.265   6.385   6.711   6.736
 45 A'   46 A'   21 A"   47 A'   22 A"   48 A'   23 A"   49 A'                 
  6.899   7.065   7.141   7.469  24.244  49.832
 50 A'   24 A"   51 A'   52 A'   53 A'   54 A'                                 
 
 Beta MOs, Unrestricted
 -- Occupied --                  
-19.628 -10.599  -1.216  -0.683  -0.573  -0.519  -0.479
  1 A'    2 A'    3 A'    4 A'    5 A'    1 A"    6 A'                         
 -- Virtual --                   
 -0.054  -0.032  -0.014   0.015   0.031   0.053   0.087   0.165
  7 A'    8 A'    2 A"    9 A'   10 A'    3 A"   11 A'   12 A'                 
  0.177   0.200   0.214   0.280   0.388   0.486   0.541   0.544
 13 A'    4 A"   14 A'   15 A'   16 A'   17 A'   18 A'    5 A"                 
  0.601   0.638   0.697   0.807   0.817   0.929   0.962   0.990
  6 A"   19 A'   20 A'   21 A'    7 A"   22 A'   23 A'    8 A"                 
  1.044   1.072   1.149   1.349   1.410   1.484   1.643   1.688
 24 A'    9 A"   25 A'   26 A'   27 A'   28 A'   10 A"   29 A'                 
  1.955   2.120   2.311   2.431   2.716   2.801   2.828   2.891
 11 A"   30 A'   31 A'   32 A'   12 A"   13 A"   33 A'   34 A'                 
  2.930   3.005   3.043   3.195   3.231   3.243   3.362   3.531
 14 A"   35 A'   36 A'   15 A"   37 A'   16 A"   38 A'   39 A'                 
  3.554   3.664   3.983   4.062   4.201   4.852   4.981   4.998
 17 A"   40 A'   18 A"   41 A'   42 A'   43 A'   19 A"   44 A'                 
  5.055   5.129   5.312   5.361   5.635   6.248   6.405   6.724
 20 A"   45 A'   46 A'   21 A"   47 A'   22 A"   48 A'   23 A"                 
  6.741   6.882   7.045   7.143   7.451  24.252  49.839
 49 A'   50 A'   24 A"   51 A'   52 A'   53 A'   54 A'                         
 --------------------------------------------------------------
 
          Ground-State Mulliken Net Atomic Charges

     Atom                 Charge (a.u.)    Spin (a.u.)
  --------------------------------------------------------
      1 C                    -0.014908       0.597496
      2 O                    -0.114463       0.236680
      3 H                     0.129371       0.165824
  --------------------------------------------------------
  Sum of atomic charges =     0.000000
  Sum of spin   charges =     1.000000

 -----------------------------------------------------------------
                    Cartesian Multipole Moments
 -----------------------------------------------------------------
    Charge (ESU x 10^10)
                 0.0000
    Dipole Moment (Debye)
         X       1.6298      Y      -0.7364      Z       0.0000
       Tot       1.7884
    Quadrupole Moments (Debye-Ang)
        XX     -11.2539     XY      -1.1694     YY     -12.1112
        XZ       0.0000     YZ       0.0000     ZZ     -11.1241
    Octopole Moments (Debye-Ang^2)
       XXX      -1.2296    XXY      -1.8358    XYY      -1.2897
       YYY      -2.0396    XXZ       0.0000    XYZ       0.0000
       YYZ       0.0000    XZZ      -0.8386    YZZ      -0.4539
       ZZZ       0.0000
    Hexadecapole Moments (Debye-Ang^3)
      XXXX     -39.9469   XXXY      -2.6288   XXYY      -9.9735
      XYYY      -1.7064   YYYY     -16.7490   XXXZ       0.0000
      XXYZ       0.0000   XYYZ       0.0000   YYYZ       0.0000
      XXZZ      -8.5892   XYZZ      -0.3049   YYZZ      -4.5176
      XZZZ       0.0000   YZZZ       0.0000   ZZZZ     -10.3482
 -----------------------------------------------------------------
 Calculating analytic gradient of the SCF energy
 Exchange:     0.5679 Hartree-Fock + 1.0000 M08SO
 Gradient of Nuclear Repulsion Energy
            1           2           3
    1  -8.6955321  10.1685427  -1.4730107
    2  -2.8313541   1.7629580   1.0683961
    3  -0.0000000   0.0000000   0.0000000
 nuclear-nuclear gradient
            1           2           3
    1  -8.6955321  10.1685427  -1.4730107
    2  -2.8313541   1.7629580   1.0683961
    3  -0.0000000   0.0000000   0.0000000
 Gradient of Nuclear Attraction Energy
            1           2           3
[...]
      2 O                    -0.114326       0.236684
      3 H                     0.129247       0.166341
  --------------------------------------------------------
  Sum of atomic charges =     0.000000
  Sum of spin   charges =     1.000000

 -----------------------------------------------------------------
                    Cartesian Multipole Moments
 -----------------------------------------------------------------
    Charge (ESU x 10^10)
                 0.0000
    Dipole Moment (Debye)
         X       1.6286      Y      -0.7362      Z       0.0000
       Tot       1.7873
    Quadrupole Moments (Debye-Ang)
        XX     -11.2563     XY      -1.1694     YY     -12.1101
        XZ       0.0000     YZ       0.0000     ZZ     -11.1249
    Octopole Moments (Debye-Ang^2)
       XXX      -1.2361    XXY      -1.8351    XYY      -1.2892
       YYY      -2.0353    XXZ       0.0000    XYZ       0.0000
       YYZ       0.0000    XZZ      -0.8399    YZZ      -0.4523
       ZZZ       0.0000
    Hexadecapole Moments (Debye-Ang^3)
      XXXX     -39.9615   XXXY      -2.6242   XXYY      -9.9737
      XYYY      -1.7010   YYYY     -16.7531   XXXZ       0.0000
      XXYZ       0.0000   XYYZ       0.0000   YYYZ       0.0000
      XXZZ      -8.5914   XYZZ      -0.3027   YYZZ      -4.5187
      XZZZ       0.0000   YZZZ       0.0000   ZZZZ     -10.3491
 -----------------------------------------------------------------
 Calculating analytic gradient of the SCF energy
 Exchange:     0.5679 Hartree-Fock + 1.0000 M08SO
 Gradient of Nuclear Repulsion Energy
            1           2           3
    1  -8.6972930  10.1683327  -1.4710397
    2  -2.8308253   1.7627515   1.0680737
    3  -0.0000000   0.0000000   0.0000000
 nuclear-nuclear gradient
            1           2           3
    1  -8.6972930  10.1683327  -1.4710397
    2  -2.8308253   1.7627515   1.0680737
    3  -0.0000000   0.0000000   0.0000000
 Gradient of Nuclear Attraction Energy
            1           2           3
    1  18.6115121 -22.4130751   3.8015630
    2   6.6453717  -3.8282682  -2.8171034
    3   0.0000000  -0.0000000  -0.0000000
 Gradient of Overlap and Kinetic Energy
            1           2           3
    1  -0.9626112   1.3239497  -0.3613385
    2  -0.5786799   0.2453396   0.3333404
    3  -0.0000000   0.0000000   0.0000000
 Gradient of Coulomb and Exchange Energy
            1           2           3
    1  -9.0798928  11.1122472  -2.0323545
    2  -3.3248576   1.8534954   1.4713622
    3  -0.0000000   0.0000000   0.0000000
 Gradient of Coulomb and Exchange Energy
            1           2           3
    1  -9.0798928  11.1122472  -2.0323545
    2  -3.3248576   1.8534954   1.4713622
    3  -0.0000000   0.0000000   0.0000000
 Using Euler-Maclaurin-Lebedev (75,434) quadrature formula
 Gradient of XC Energy
            1           2           3
    1   0.1281153  -0.1914769   0.0633616
    2   0.0892257  -0.0333218  -0.0559039
    3   0.0000000  -0.0000000  -0.0000000
 Gradient of SCF Energy
            1           2           3
    1  -0.0001696  -0.0000223   0.0001920
    2   0.0002346  -0.0000036  -0.0002310
    3   0.0000000  -0.0000000  -0.0000000
 Max gradient component =       2.346E-04
 RMS gradient           =       1.393E-04
 Gradient time:  CPU 3.58 s  wall 3.60 s
 ----------------------------------------------------------------
             Standard Nuclear Orientation (Angstroms)
    I     Atom           X                Y                Z
 ----------------------------------------------------------------
    1      C       0.5576225785     0.1733340513     0.0000000000
    2      O      -0.5891482143    -0.0538066623     0.0000000000
    3      H       1.3674502431    -0.6095510093     0.0010000000
 ----------------------------------------------------------------
 Nuclear Repulsion Energy =    26.6276447679 hartrees
 There are        8 alpha and        7 beta electrons

                       Distance Matrix (Angstroms)
             C (  1)   O (  2)
   O (  2)  1.169049
   H (  3)  1.126380  2.033994
 
 Requested basis set is non-standard
 There are 30 shells and 78 basis functions
 A cutoff of  1.0D-11 yielded    465 shell pairs
 There are      3193 function pairs (      4096 Cartesian)
 Smallest overlap matrix eigenvalue = 1.04E-03
 Guess MOs from SCF MO coefficient file
Reading MOs from coefficient file
Reading MOs from coefficient file
 An unrestricted hybrid HF-DFT SCF calculation will be
 performed using Pulay DIIS extrapolation
 Exchange:     0.5679 Hartree-Fock + 1.0000 M08SO
 SCF converges when DIIS error is below 1.0E-08
 ---------------------------------------
  Cycle       Energy         DIIS Error
 ---------------------------------------
    1    -113.8089498882      2.53E-05
    2    -113.8087811457      3.68E-06
    3    -113.8087811704      3.22E-06
    4    -113.8087811800      1.67E-06
    5    -113.8087811856      5.26E-07
    6    -113.8087811903      2.88E-07
    7    -113.8087811921      1.30E-07
    8    -113.8087811924      4.22E-08
    9    -113.8087811925      1.51E-08
   10    -113.8087811925      3.42E-09 Convergence criterion met
 ---------------------------------------
 <S^2> = 0.7538
 SCF time:  CPU 25.96 s  wall 27.15 s
 SCF   energy in the final basis set = -113.8087811925
 Total energy in the final basis set = -113.8087811925
 Analysis of SCF Wavefunction
 
 --------------------------------------------------------------
                    Orbital Energies (a.u.)
 --------------------------------------------------------------
 
 Alpha MOs
 -- Occupied --
-19.638 -10.612  -1.236  -0.714  -0.603  -0.539  -0.525  -0.289
 -- Virtual --
 -0.018  -0.014   0.022   0.043   0.053   0.098   0.169   0.173
  0.204   0.217   0.280   0.382   0.470   0.531   0.537   0.581
  0.618   0.673   0.797   0.805   0.915   0.960   0.978   1.028
  1.073   1.123   1.337   1.383   1.477   1.629   1.673   1.958
  2.096   2.315   2.417   2.712   2.777   2.790   2.822   2.893
  2.989   3.023   3.121   3.162   3.184   3.349   3.479   3.550
  3.634   3.980   4.052   4.166   4.825   4.977   4.999   5.063
  5.086   5.337   5.366   5.663   6.265   6.385   6.711   6.736
  6.899   7.065   7.141   7.469  24.244  49.832
 
 Beta MOs
 -- Occupied --
-19.628 -10.599  -1.216  -0.683  -0.573  -0.519  -0.479
 -- Virtual --
 -0.054  -0.032  -0.014   0.015   0.031   0.053   0.087   0.165
  0.177   0.200   0.214   0.280   0.388   0.486   0.541   0.544
  0.601   0.638   0.697   0.807   0.817   0.929   0.962   0.990
  1.044   1.072   1.149   1.349   1.410   1.484   1.643   1.688
  1.955   2.120   2.311   2.431   2.716   2.801   2.828   2.891
  2.930   3.005   3.043   3.195   3.231   3.243   3.362   3.531
  3.554   3.664   3.983   4.062   4.201   4.852   4.981   4.998
  5.055   5.129   5.312   5.361   5.635   6.248   6.405   6.724
  6.741   6.882   7.045   7.143   7.451  24.252  49.839
 --------------------------------------------------------------
 
          Ground-State Mulliken Net Atomic Charges

     Atom                 Charge (a.u.)    Spin (a.u.)
  --------------------------------------------------------
      1 C                    -0.014908       0.597495
      2 O                    -0.114463       0.236680
      3 H                     0.129371       0.165824
  --------------------------------------------------------
  Sum of atomic charges =     0.000000
  Sum of spin   charges =     1.000000

 -----------------------------------------------------------------
                    Cartesian Multipole Moments
 -----------------------------------------------------------------
    Charge (ESU x 10^10)
                 0.0000
    Dipole Moment (Debye)
         X       1.6298      Y      -0.7364      Z       0.0011
       Tot       1.7884
    Quadrupole Moments (Debye-Ang)
        XX     -11.2539     XY      -1.1694     YY     -12.1112
        XZ       0.0013     YZ       0.0007     ZZ     -11.1241
    Octopole Moments (Debye-Ang^2)
       XXX      -1.2296    XXY      -1.8358    XYY      -1.2897
       YYY      -2.0396    XXZ       0.0013    XYZ       0.0001
       YYZ       0.0001    XZZ      -0.8386    YZZ      -0.4539
       ZZZ      -0.0013
    Hexadecapole Moments (Debye-Ang^3)
      XXXX     -39.9469   XXXY      -2.6288   XXYY      -9.9735
      XYYY      -1.7064   YYYY     -16.7490   XXXZ      -0.0003
      XXYZ       0.0009   XYYZ      -0.0001   YYYZ       0.0029
      XXZZ      -8.5892   XYZZ      -0.3049   YYZZ      -4.5176
      XZZZ      -0.0024   YZZZ       0.0031   ZZZZ     -10.3482
 -----------------------------------------------------------------
 Calculating analytic gradient of the SCF energy
 Exchange:     0.5679 Hartree-Fock + 1.0000 M08SO
 Gradient of Nuclear Repulsion Energy
            1           2           3
    1  -8.6955332  10.1685425  -1.4730094
    2  -2.8313530   1.7629580   1.0683950
    3   0.0011757   0.0002662  -0.0014419
 nuclear-nuclear gradient
            1           2           3
    1  -8.6955332  10.1685425  -1.4730094
    2  -2.8313530   1.7629580   1.0683950
    3   0.0011757   0.0002662  -0.0014419
 Gradient of Nuclear Attraction Energy
            1           2           3
    1  18.6077281 -22.4135862   3.8058582
    2   6.6449908  -3.8284463  -2.8165445
    3  -0.0031383  -0.0006495   0.0037878
 Gradient of Overlap and Kinetic Energy
            1           2           3
    1  -0.9620507   1.3239074  -0.3618566
    2  -0.5786907   0.2453173   0.3333734
    3   0.0004119   0.0000181  -0.0004300
 Gradient of Coulomb and Exchange Energy
            1           2           3
    1  -9.0781698  11.1126240  -2.0344542
    2  -3.3242158   1.8535253   1.4706905
    3   0.0016183   0.0003701  -0.0019884
 Gradient of Coulomb and Exchange Energy
            1           2           3
    1  -9.0781698  11.1126240  -2.0344542
    2  -3.3242158   1.8535253   1.4706905
    3   0.0016183   0.0003701  -0.0019884
 Using Euler-Maclaurin-Lebedev (75,434) quadrature formula
 Gradient of XC Energy
            1           2           3
    1   0.1280400  -0.1914803   0.0634403
    2   0.0892045  -0.0333172  -0.0558873
    3  -0.0000683  -0.0000049   0.0000732
 Gradient of SCF Energy
            1           2           3
    1   0.0000143   0.0000074  -0.0000217
    2  -0.0000642   0.0000372   0.0000270
    3  -0.0000007   0.0000001   0.0000006
 Max gradient component =       6.418E-05
 RMS gradient           =       2.781E-05
 Gradient time:  CPU 3.81 s  wall 3.82 s
Dipole drv :
gprntSymmMtrx error report: 
 Final Hessian.
            1           2           3           4           5           6
    1   1.0876955   0.1039925   0.0000000  -0.9743274  -0.2017707   0.0000000
    2   0.1039925   0.2463990   0.0000000  -0.1957763  -0.0880160   0.0000000
    3   0.0000000   0.0000000   0.0013968   0.0000020   0.0000000  -0.0010079
    4  -0.9743274  -0.1957763   0.0000020   1.0234901   0.1801031   0.0000000
    5  -0.2017707  -0.0880160   0.0000000   0.1801031   0.0664461   0.0000000
    6   0.0000000   0.0000000  -0.0010079   0.0000000   0.0000000   0.0009592
    7  -0.1133556   0.0917870   0.0000010  -0.0491687   0.0216634  -0.0000010
    8   0.0977696  -0.1583878   0.0000000   0.0156756   0.0215741   0.0000000
    9   0.0000000   0.0000000  -0.0003884   0.0000000   0.0000000   0.0000466
            7           8           9
    1  -0.1133556   0.0977696   0.0000000
    2   0.0917870  -0.1583878   0.0000000
    3   0.0000010   0.0000000  -0.0003884
    4  -0.0491687   0.0156756   0.0000000
    5   0.0216634   0.0215741   0.0000000
    6  -0.0000010   0.0000000   0.0000466
    7   0.1625177  -0.1134442   0.0000000
    8  -0.1134442   0.1368142   0.0000000
    9   0.0000000   0.0000000   0.0003434
 ----------------------------------------------------------------
             Standard Nuclear Orientation (Angstroms)
    I     Atom           X                Y                Z
 ----------------------------------------------------------------
    1      C       0.5576225785     0.1733340513     0.0000000000
    2      O      -0.5891482143    -0.0538066623     0.0000000000
    3      H       1.3674502431    -0.6095510093     0.0000000000
 ----------------------------------------------------------------
 Nuclear Repulsion Energy =    26.6276461304 hartrees
 There are        8 alpha and        7 beta electrons
 old dipole drv.
            1           2           3           4           5           6
    1   0.9876202  -0.1021340   0.0000000  -0.9972287  -0.1480618   0.0000000
    2  -0.1961568   0.2397877   0.0000000   0.0545583  -0.2095640   0.0000000
    3  -0.0000000   0.0000000  -0.1029790   0.0000086   0.0000000  -0.1307783
            7           8           9
    1   0.0096639   0.2501288   0.0000000
    2   0.1417097  -0.0304253   0.0000000
    3   0.0000101   0.0000000   0.2337433
 New transposed dipole drv.
            1           2           3
    1   0.9876202  -0.1961568  -0.0000000
    2  -0.1021340   0.2397877   0.0000000
    3   0.0000000   0.0000000  -0.1029790
    4  -0.9972287   0.0545583   0.0000086
    5  -0.1480618  -0.2095640   0.0000000
    6   0.0000000   0.0000000  -0.1307783
    7   0.0096639   0.1417097   0.0000101
    8   0.2501288  -0.0304253   0.0000000
    9   0.0000000   0.0000000   0.2337433
FINAL TENSOR RESULT:
Order 2, Length 9
    Atom      X          Y          Z
     1 Order 1, Length 9
    Atom      X          Y          Z
     1    1.087695530118134e+00   1.039924936156272e-01   0.000000000000000e+00
     2   -9.743273728619263e-01  -2.017707260342322e-01   0.000000000000000e+00
     3   -1.133556412451818e-01   9.776955194783465e-02   0.000000000000000e+00

Order 1, Length 9
    Atom      X          Y          Z
     1    1.039924936156272e-01   2.463990098374716e-01   0.000000000000000e+00
     2   -1.957762982153409e-01  -8.801596588337164e-02   0.000000000000000e+00
     3    9.178704515243313e-02  -1.583878148441684e-01   0.000000000000000e+00

Order 1, Length 9
    Atom      X          Y          Z
     1    0.000000000000000e+00   0.000000000000000e+00   1.396808285605449e-03
     2    2.040962923080655e-06   8.237355514962960e-09  -1.007870966584229e-03
     3    9.959698496531038e-07   0.000000000000000e+00  -3.884388045562736e-04


     2 Order 1, Length 9
    Atom      X          Y          Z
     1   -9.743273728619263e-01  -1.957762982153409e-01   2.040962923080655e-06
     2    1.023490111905417e+00   1.801031359604120e-01   0.000000000000000e+00
     3   -4.916867685249536e-02   1.567558265835126e-02   0.000000000000000e+00

Order 1, Length 9
    Atom      X          Y          Z
     1   -2.017707260342322e-01  -8.801596588337164e-02   8.237355514962960e-09
     2    1.801031359604120e-01   6.644610059777781e-02   0.000000000000000e+00
     3    2.166338073368142e-02   2.157414781932925e-02   0.000000000000000e+00

Order 1, Length 9
    Atom      X          Y          Z
     1    0.000000000000000e+00   0.000000000000000e+00  -1.007870966584229e-03
     2    0.000000000000000e+00   0.000000000000000e+00   9.591556314471040e-04
     3   -9.906674825160585e-07   0.000000000000000e+00   4.662731072857031e-05


     3 Order 1, Length 9
    Atom      X          Y          Z
     1   -1.133556412451818e-01   9.178704515243313e-02   9.959698496531038e-07
     2   -4.916867685249536e-02   2.166338073368142e-02  -9.906674825160585e-07
     3    1.625177398472968e-01  -1.134441657718672e-01   0.000000000000000e+00

Order 1, Length 9
    Atom      X          Y          Z
     1    9.776955194783465e-02  -1.583878148441684e-01   0.000000000000000e+00
     2    1.567558265835126e-02   2.157414781932925e-02   0.000000000000000e+00
     3   -1.134441657718672e-01   1.368141554164923e-01   0.000000000000000e+00

Order 1, Length 9
    Atom      X          Y          Z
     1    0.000000000000000e+00   0.000000000000000e+00  -3.884388045562736e-04
     2    0.000000000000000e+00   0.000000000000000e+00   4.662731072857031e-05
     3    0.000000000000000e+00   0.000000000000000e+00   3.434010038468131e-04




 # Finishing finite difference calculation for IDERIV #
 ######################################################
 ######################################################
 Requested basis set is non-standard
 There are 30 shells and 78 basis functions
 **********************************************************************
 **                                                                  **
 **                       VIBRATIONAL ANALYSIS                       **
 **                       --------------------                       **
 **                                                                  **
 **        VIBRATIONAL FREQUENCIES (CM**-1) AND NORMAL MODES         **
 **     FORCE CONSTANTS (mDYN/ANGSTROM) AND REDUCED MASSES (AMU)     **
 **                  INFRARED INTENSITIES (KM/MOL)                   **
 **                                                                  **
 **********************************************************************
 

 Mode:                 1                      2                      3
 Frequency:      1090.95                1995.44                2722.53
 Force Cnst:      0.8796                26.0336                 4.7363
 Red. Mass:       1.2543                11.0970                 1.0845
 IR Active:          YES                    YES                    YES
 IR Intens:       38.875                115.042                 68.344
 Raman Active:       YES                    YES                    YES
               X      Y      Z        X      Y      Z        X      Y      Z
 C         -0.004 -0.127  0.000    0.692  0.169  0.000   -0.064  0.054  0.000
 O         -0.043  0.053  0.000   -0.538 -0.107  0.000    0.002  0.002  0.000
 H          0.723  0.676  0.000    0.306 -0.313  0.000    0.736 -0.672  0.000
 TransDip   0.197  0.035  0.000    0.343 -0.015  0.000   -0.222  0.144  0.000

 STANDARD THERMODYNAMIC QUANTITIES AT   298.15 K  AND     1.00 ATM

   This Molecule has  0 Imaginary Frequencies
   Zero point vibrational energy:        8.304 kcal/mol

   Atom    1 Element C  Has Mass   12.00000
   Atom    2 Element O  Has Mass   15.99491
   Atom    3 Element H  Has Mass    1.00783
   Molecular Mass:    29.002740 amu
   Principal axes and moments of inertia in amu*Bohr^2:
                             1           2           3
    Eigenvalues --        2.49410    39.90564    42.39974
          X               0.99664    -0.08190     0.00000
          Y               0.08190     0.99664     0.00000
          Z               0.00000     0.00000     1.00000
   Rotational Symmetry Number is   1
   The Molecule is an Asymmetric Top
   Translational Enthalpy:        0.889 kcal/mol
   Rotational Enthalpy:           0.889 kcal/mol
   Vibrational Enthalpy:          8.321 kcal/mol
   gas constant (RT):             0.592 kcal/mol
   Translational Entropy:        36.028  cal/mol.K
   Rotational Entropy:           16.097  cal/mol.K
   Vibrational Entropy:           0.066  cal/mol.K

   Total Enthalpy:               10.691 kcal/mol
   Total Entropy:                52.191  cal/mol.K
Archival summary:
1\1\node65\FREQ\ProcedureUnspecified\BasisUnspecified\111(2)\edames\MonJun2315:26:262014MonJun2315:26:262014\0\\#,FREQ,ProcedureUnspecified,BasisUnspecified,\\0,2\C\H,1,1.12638\O,1,1.16905,2,124.766\\\@

 Total job time:  459.30s(wall), 447.82s(cpu) 
 Mon Jun 23 15:26:26 2014

        *************************************************************
        *                                                           *
        *  Thank you very much for using Q-Chem.  Have a nice day.  *
        *                                                           *
        *************************************************************


0 sent ACK to 0 
now end server 0 ... 
cleanup process ... done
remove work dirs /scratch/edames/qchem28563.0 -- /scratch/edames/qchem28563.1
rm -rf /scratch/edames/qchem28563.0
rm -rf /scratch/edames/qchem28563.1
rm -rf /scratch/edames/qchem28563
