You are running Q-Chem version: 5.0.2

#
# job setting
#
local host:  nid00458
current dir: /global/cscratch1/sd/cgrambow/ard_gsm/opt/max6heavy
input file:  molopt152.in
output file: 
nprocs     : 1
nthreads   : 16
#
# qchem installation setting
#
QC:          /global/common/cori/software/qchem/5.1beta
QCAUX:       /global/common/cori/software/qchem/5.1beta/qcaux
QCPROG:      /global/common/cori/software/qchem/5.1beta/exe/qcprog.exe
QCPROG_S:    /global/common/cori/software/qchem/5.1beta/exe/qcprog.exe
PARALLEL:    -DPARALLEL
QCMPI:       slurm
#
# qchem directory setting
#
qcrun:       qchem44046
QCSCRATCH:   /global/cscratch1/sd/cgrambow
QCLOCALSCR:  /tmp
QCTMPDIR:    /tmp
QCFILEPREF:  /tmp/qchem44046
QCSAVEDIR:   
workdirs:    /tmp/qchem44046
workdir0:    /tmp/qchem44046
partmpdirs =  
#
# parallel setting
#
QCRSH:           ssh
QCMPI:           slurm
QCMPIRUN:        srun
QCMACHINEFILE:   

#
# env setting
#
exported envs:   QC QCAUX QCSCRATCH QCRUNNAME QCFILEPREF QCPROG QCPROG_S GUIFILE

Running Job 1 of 2 molopt152.in
qchem molopt152.in_44046.0 /tmp/qchem44046/ 1
srun -n 1 /global/common/cori/software/qchem/5.1beta/exe/qcprog.exe molopt152.in_44046.0 /tmp/qchem44046/

Process 0 of 1 is on nid00458 - thread support 0
initial socket setup ...start
initial socket setup ...done 
now start server 0 ... 
Check license passed

                  Welcome to Q-Chem
     A Quantum Leap Into The Future Of Chemistry


 Q-Chem 5.1, Q-Chem, Inc., Pleasanton, CA (2018)

 Yihan Shao,  Zhengting Gan,  E. Epifanovsky,  A. T. B. Gilbert,  M. Wormit,  
 J. Kussmann,  A. W. Lange,  A. Behn,  Jia Deng,  Xintian Feng,  D. Ghosh,  
 M. Goldey,  P. R. Horn,  L. D. Jacobson,  I. Kaliman,  T. Kus,  A. Landau,  
 Jie Liu,  E. I. Proynov,  R. M. Richard,  R. P. Steele,  E. J. Sundstrom,  
 H. L. Woodcock III,  P. M. Zimmerman,  D. Zuev,  B. Albrecht,  E. Alguire,  
 S. A. Baeppler,  D. Barton,  Z. Benda,  Y. A. Bernard,  E. J. Berquist,  
 K. B. Bravaya,  H. Burton,  D. Casanova,  Chun-Min Chang,  Yunqing Chen,  
 A. Chien,  K. D. Closser,  M. P. Coons,  S. Coriani,  S. Dasgupta,  
 A. L. Dempwolff,  M. Diedenhofen,  Hainam Do,  R. G. Edgar,  Po-Tung Fang,  
 S. Faraji,  S. Fatehi,  Qingguo Feng,  K. D. Fenk,  J. Fosso-Tande,  
 Qinghui Ge,  A. Ghysels,  G. Gidofalvi,  J. Gomes,  J. Gonthier,  A. Gunina,  
 M. W. D. Hanson-Heine,  P. H. P. Harbach,  A. W. Hauser,  J. E. Herr,  
 E. G. Hohenstein,  Z. C. Holden,  Kerwin Hui,  T.-C. Jagau,  Hyunjun Ji,  
 B. Kaduk,  K. Khistyaev,  Jaehoon Kim,  P. Klunzinger,  K. Koh,  
 D. Kosenkov,  L. Koulias,  T. Kowalczyk,  C. M. Krauter,  A. Kunitsa,  
 Ka Un Lao,  A. Laurent,  K. V. Lawler,  Joonho Lee,  D. Lefrancois,  
 S. Lehtola,  D. S. Levine,  Yi-Pei Li,  You-Sheng Lin,  Fenglai Liu,  
 E. Livshits,  A. Luenser,  P. Manohar,  E. Mansoor,  S. F. Manzer,  
 Shan-Ping Mao,  Yuezhi Mao,  N. Mardirossian,  A. V. Marenich,  
 T. Markovich,  L. A. Martinez-Martinez,  S. A. Maurer,  N. J. Mayhall,  
 S. C. McKenzie,  J.-M. Mewes,  A. F. Morrison,  J. W. Mullinax,  K. Nanda,  
 T. S. Nguyen-Beck,  R. Olivares-Amaya,  J. A. Parkhill,  T. M. Perrine,  
 F. Plasser,  P. Pokhilko,  S. Prager,  A. Prociuk,  E. Ramos,  D. R. Rehn,  
 F. Rob,  M. Schneider,  N. Sergueev,  S. M. Sharada,  S. Sharma,  
 D. W. Small,  T. Stauch,  T. Stein,  Yu-Chuan Su,  A. J. W. Thom,  
 A. Tkatchenko,  T. Tsuchimochi,  N. M. Tubman,  L. Vogt,  M. L. Vidal,  
 O. Vydrov,  M. A. Watson,  J. Wenzel,  M. de Wergifosse,  T. A. Wesolowski,  
 A. White,  J. Witte,  A. Yamada,  Jun Yang,  K. Yao,  S. Yeganeh,  
 S. R. Yost,  Zhi-Qiang You,  A. Zech,  Igor Ying Zhang,  Xing Zhang,  
 Yan Zhao,  Ying Zhu,  B. R. Brooks,  G. K. L. Chan,  C. J. Cramer,  
 M. S. Gordon,  W. J. Hehre,  A. Klamt,  M. W. Schmidt,  C. D. Sherrill,  
 D. G. Truhlar,  A. Aspuru-Guzik,  R. Baer,  A. T. Bell,  N. A. Besley,  
 Jeng-Da Chai,  R. A. DiStasio Jr.,  A. Dreuw,  B. D. Dunietz,  
 T. R. Furlani,  Chao-Ping Hsu,  Yousung Jung,  Jing Kong,  D. S. Lambrecht,  
 WanZhen Liang,  C. Ochsenfeld,  V. A. Rassolov,  L. V. Slipchenko,  
 J. E. Subotnik,  T. Van Voorhis,  J. M. Herbert,  A. I. Krylov,  
 P. M. W. Gill,  M. Head-Gordon

 Contributors to earlier versions of Q-Chem not listed above: 
 R. D. Adamson,  B. Austin,  J. Baker,  G. J. O. Beran,  K. Brandhorst,  
 S. T. Brown,  E. F. C. Byrd,  A. K. Chakraborty,  C.-L. Cheng,  
 Siu Hung Chien,  D. M. Chipman,  D. L. Crittenden,  H. Dachsel,  
 R. J. Doerksen,  A. D. Dutoi,  L. Fusti-Molnar,  W. A. Goddard III,  
 A. Golubeva-Zadorozhnaya,  S. R. Gwaltney,  G. Hawkins,  A. Heyden,  
 S. Hirata,  G. Kedziora,  F. J. Keil,  C. Kelley,  Jihan Kim,  R. A. King,  
 R. Z. Khaliullin,  P. P. Korambath,  W. Kurlancheek,  A. M. Lee,  M. S. Lee,  
 S. V. Levchenko,  Ching Yeh Lin,  D. Liotard,  R. C. Lochan,  I. Lotan,  
 P. E. Maslen,  N. Nair,  D. P. O'Neill,  D. Neuhauser,  E. Neuscamman,  
 C. M. Oana,  R. Olson,  B. Peters,  R. Peverati,  P. A. Pieniazek,  
 Y. M. Rhee,  J. Ritchie,  M. A. Rohrdanz,  E. Rosta,  N. J. Russ,  
 H. F. Schaefer III,  N. E. Schultz,  N. Shenvi,  A. C. Simmonett,  A. Sodt,  
 D. Stuck,  K. S. Thanthiriwatte,  V. Vanovschi,  Tao Wang,  A. Warshel,  
 C. F. Williams,  Q. Wu,  X. Xu,  W. Zhang

 Please cite Q-Chem as follows:
 Y. Shao et al., Mol. Phys. 113, 184-215 (2015)
 DOI: 10.1080/00268976.2014.952696

 Q-Chem 5.1.0 for Intel X86 EM64T Linux

 Parts of Q-Chem use Armadillo 8.300.2 (Tropical Shenanigans).
 http://arma.sourceforge.net/

 Q-Chem begins on Thu Jun 21 16:08:22 2018  

Host: cori05
0

     Scratch files written to /tmp/qchem44046//
 Mar1918  _RNUM -1
 Parallel job on  1  processors
Processing $rem in /global/common/cori/software/qchem/5.1beta/config/preferences.
 MEM_TOTAL  2000 

Checking the input file for inconsistencies... 	...done.

--------------------------------------------------------------
User input:
--------------------------------------------------------------
$molecule
0 1
O   0.0264210755  -1.0659587491   0.0262948240
C   0.7444754531   0.0713719899   0.1923455092
N   0.0002624610   1.0981399767   0.5006476808
N  -1.2771608250   0.5929623658   0.5359192379
N  -1.3059137742  -0.7084488794   0.2557205302
H   1.8119156096   0.0119332961   0.0579767030
$end

$rem
JOBTYPE                   OPT
METHOD                    B97-D3
DFT_D                     D3_BJ
BASIS                     def2-mSVP
UNRESTRICTED              TRUE
SCF_ALGORITHM             DIIS
MAX_SCF_CYCLES            150
SCF_CONVERGENCE           8
SYM_IGNORE                TRUE
SYMMETRY                  FALSE
GEOM_OPT_MAX_CYCLES       300
GEOM_OPT_TOL_GRADIENT     15
GEOM_OPT_TOL_DISPLACEMENT 120
GEOM_OPT_TOL_ENERGY       10
WAVEFUNCTION_ANALYSIS     FALSE
$end

--------------------------------------------------------------
 Adding empirical dispersion correction 
 ----------------------------------------------------------------
 Doing -D3(BJ) with
 s6 =   1.00000
 s8 =   2.26090
 a1 =   0.55450
 a2 =   3.22970
 -D3 energy without 3body term =     -0.0123165276 hartrees
 ----------------------------------------------------------------
             Standard Nuclear Orientation (Angstroms)
    I     Atom           X                Y                Z
 ----------------------------------------------------------------
    1      O       0.0264210755    -1.0659587491     0.0262948240
    2      C       0.7444754531     0.0713719899     0.1923455092
    3      N       0.0002624610     1.0981399767     0.5006476808
    4      N      -1.2771608250     0.5929623658     0.5359192379
    5      N      -1.3059137742    -0.7084488794     0.2557205302
    6      H       1.8119156096     0.0119332961     0.0579767030
 ----------------------------------------------------------------
 Nuclear Repulsion Energy =   163.5285850876 hartrees
 There are       18 alpha and       18 beta electrons
 Requested basis set is def2-mSVP
 There are 37 shells and 77 basis functions

 Total QAlloc Memory Limit   2000 MB
 Mega-Array Size       188 MB
 MEM_STATIC part       192 MB
 A cutoff of  1.0D-11 yielded    676 shell pairs
 There are      3056 function pairs (      3481 Cartesian)
 
 -------------------------------------------------------
 OpenMP Integral Computing Module                       
 Release: version 1.0, May 2013, Q-Chem Inc. Pittsburgh 
 -------------------------------------------------------
 Integral Job Info:
 Integral job number is                      11
 Integral operator is                         1
 short-range coefficients                     0
 long-range coefficients              100000000
 Omega coefficients                           0
 if combine SR and LR in K                    0
 Integral screening is                        0
 Integral computing path is                   2
 max size of driver memory is            800000
 size of driver memory is                593474
 size of scratch memory is              1809772
 max col of scratch BK array               1296
 max len of scratch array in speh3          155
 max len of scratch index in speh4           18
 max int batch size is                      520
 min int batch size is                       52
 fixed nKL is                                52
 max L of basis functions is                  2
 order of int derivative is                   0
 number of shells is                         37
 number of basis is                          82
 number of cartesian basis is                82
 number of contracted shell pairs           676
 number of primitive shell pairs           1879
 maxK2 (contraction) of shell pair           25
 max number of K2 of shell pair               1
 max number of CS2 of shell pair            140
 max number of PS2 of shell pair            330
 mem total for path MDJ                  520332
 -------------------------------------------------------
 Smallest overlap matrix eigenvalue = 7.41E-03

 Scale SEOQF with 1.000000e-01/1.000000e+00/1.000000e+00

 Standard Electronic Orientation quadrupole field applied
 Nucleus-field energy     =     0.0000000131 hartrees
 Guess from superposition of atomic densities
 Warning:  Energy on first SCF cycle will be non-variational
 SAD guess density has 36.000000 electrons

 -----------------------------------------------------------------------
  General SCF calculation program by
  Eric Jon Sundstrom, Paul Horn, Yuezhi Mao, Dmitri Zuev, Alec White,
  David Stuck, Shaama M.S., Shane Yost, Joonho Lee, David Small,
  Daniel Levine, Susi Lehtola, Hugh Burton, Evgeny Epifanovsky
 -----------------------------------------------------------------------
 Exchange:  B97-D      Correlation:  B97-D
 Using SG-2 standard quadrature grid
 Dispersion:   Grimme D3
 using 16 threads for integral computing
 -------------------------------------------------------
 OpenMP Integral computing Module                
 Release: version 1.0, May 2013, Q-Chem Inc. Pittsburgh 
 -------------------------------------------------------
 -------------------------------------------------------
 OpenMP BLAS3 based DFT computing Module                
 Release: version 1.0, May 2013, Q-Chem Inc. Pittsburgh 
 -------------------------------------------------------
 A unrestricted SCF calculation will be
 performed using DIIS
 SCF converges when DIIS error is below 1.0e-08
 ---------------------------------------
  Cycle       Energy         DIIS error
 ---------------------------------------
    1    -278.7876895014      4.25e-02  
    2    -277.8594564759      4.37e-03  
    3    -277.6642714140      9.41e-03  
    4    -277.8839345984      3.11e-03  
    5    -277.9047355100      1.30e-03  
    6    -277.9087198262      1.58e-04  
    7    -277.9087269623      1.38e-04  
    8    -277.9087845783      2.32e-05  
    9    -277.9087855795      1.14e-05  
   10    -277.9087858781      9.89e-07  
   11    -277.9087858807      1.35e-07  
   12    -277.9087858807      2.17e-08  
   13    -277.9087858807      6.39e-09  Convergence criterion met
 ---------------------------------------
 SCF time:   CPU 51.63s  wall 4.00s 
 SCF   energy in the final basis set =     -277.9087858807
<S^2> =          0.000000000
 No wavefunction analysis requested
 Calculating analytic gradient of the SCF energy
 Gradient of SCF Energy
            1           2           3           4           5           6
    1  -0.0146238   0.0073905   0.0041526   0.0086984  -0.0027476  -0.0028701
    2  -0.0001180   0.0092753   0.0064359   0.0417756  -0.0569749  -0.0003938
    3   0.0016678   0.0009198   0.0010274   0.0081237  -0.0120092   0.0002704
 Max gradient component =       5.697E-02
 RMS gradient           =       1.781E-02
 Gradient time:  CPU 8.95 s  wall 1.01 s
 Geometry Optimization Parameters
   NAtoms,    NIC,     NZ,  NCons,   NDum,   NFix, NCnnct, MaxDiis
        6      32       0       0       0       0       0       0


** GEOMETRY OPTIMIZATION IN DELOCALIZED INTERNAL COORDINATES **
   Searching for a Minimum

   Optimization Cycle:   1

                       Coordinates (Angstroms)
     ATOM                X               Y               Z
      1  O         0.0264210755   -1.0659587491    0.0262948240
      2  C         0.7444754531    0.0713719899    0.1923455092
      3  N         0.0002624610    1.0981399767    0.5006476808
      4  N        -1.2771608250    0.5929623658    0.5359192379
      5  N        -1.3059137742   -0.7084488794    0.2557205302
      6  H         1.8119156096    0.0119332961    0.0579767030
   Point Group: c1    Number of degrees of freedom:    12


   Energy is   -277.908785881


 Attempting to Generate Delocalized Internal Coordinates

 12 Hessian modes will be used to form the next step
  Hessian Eigenvalues:
     0.015297    0.021487    0.025425    0.160000    0.234225    0.250000
     0.362975    0.438327    0.476437    0.515174    0.568469    0.636811

 Minimum Search - Taking Simple RFO Step
 Searching for Lamda that Minimizes Along All modes
 Value Taken    Lamda =  -0.00571007
 Step Taken.  Stepsize is  0.112241

                             Maximum     Tolerance    Cnvgd?
         Gradient           0.025919      0.000015      NO
         Displacement       0.070264      0.000120      NO
         Energy change     *********      0.000000      NO


 New Cartesian Coordinates Obtained by Inverse Iteration

 Displacement from previous Coordinates is:  0.097183
 Adding empirical dispersion correction 
 ----------------------------------------------------------------
 Doing -D3(BJ) with
 s6 =   1.00000
 s8 =   2.26090
 a1 =   0.55450
 a2 =   3.22970
 -D3 energy without 3body term =     -0.0123138203 hartrees
 ----------------------------------------------------------------
             Standard Nuclear Orientation (Angstroms)
    I     Atom           X                Y                Z
 ----------------------------------------------------------------
    1      O       0.0375621246    -1.0684227629     0.0245301988
    2      C       0.7450179361     0.0609073200     0.1912949225
    3      N      -0.0135102794     1.0792319613     0.4977015798
    4      N      -1.2930017005     0.5869443428     0.5365835157
    5      N      -1.2932705785    -0.6719914552     0.2618165789
    6      H       1.8172024978     0.0133305939     0.0569776894
 ----------------------------------------------------------------
 Nuclear Repulsion Energy =   164.5749069770 hartrees
 There are       18 alpha and       18 beta electrons
 Applying Cartesian multipole field
    Component          Value
    ---------          -----
     (2,0,0)        1.00000E-11
     (0,2,0)        2.00000E-10
     (0,0,2)       -3.00000E-10
 Nucleus-field energy     =     0.0000000126 hartrees
 Requested basis set is def2-mSVP
 There are 37 shells and 77 basis functions
 A cutoff of  1.0D-11 yielded    676 shell pairs
 There are      3056 function pairs (      3481 Cartesian)
 Smallest overlap matrix eigenvalue = 6.98E-03
 Guess MOs from SCF MO coefficient file
 Reading MOs from coefficient file
 Reading MOs from coefficient file

 -----------------------------------------------------------------------
  General SCF calculation program by
  Eric Jon Sundstrom, Paul Horn, Yuezhi Mao, Dmitri Zuev, Alec White,
  David Stuck, Shaama M.S., Shane Yost, Joonho Lee, David Small,
  Daniel Levine, Susi Lehtola, Hugh Burton, Evgeny Epifanovsky
 -----------------------------------------------------------------------
 Exchange:  B97-D      Correlation:  B97-D
 Using SG-2 standard quadrature grid
 Dispersion:   Grimme D3
 using 16 threads for integral computing
 -------------------------------------------------------
 OpenMP Integral computing Module                
 Release: version 1.0, May 2013, Q-Chem Inc. Pittsburgh 
 -------------------------------------------------------
 -------------------------------------------------------
 OpenMP BLAS3 based DFT computing Module                
 Release: version 1.0, May 2013, Q-Chem Inc. Pittsburgh 
 -------------------------------------------------------
 A unrestricted SCF calculation will be
 performed using DIIS
 SCF converges when DIIS error is below 1.0e-08
 ---------------------------------------
  Cycle       Energy         DIIS error
 ---------------------------------------
    1    -277.9485286306      1.88e-03  
    2    -277.9097341487      8.78e-04  
    3    -277.9055762993      1.56e-03  
    4    -277.9115850341      3.27e-04  
    5    -277.9117843645      1.54e-04  
    6    -277.9118434655      3.06e-05  
    7    -277.9118453197      1.47e-05  
    8    -277.9118458398      2.50e-06  
    9    -277.9118458545      1.13e-06  
   10    -277.9118458581      1.28e-07  
   11    -277.9118458581      1.68e-08  
   12    -277.9118458581      2.17e-09  Convergence criterion met
 ---------------------------------------
 SCF time:   CPU 47.57s  wall 3.00s 
 SCF   energy in the final basis set =     -277.9118458581
<S^2> =         -0.000000000
 No wavefunction analysis requested
 Calculating analytic gradient of the SCF energy
 Gradient of SCF Energy
            1           2           3           4           5           6
    1  -0.0080818   0.0053782  -0.0092803  -0.0085045   0.0202051   0.0002833
    2  -0.0013219   0.0005763  -0.0114045   0.0295369  -0.0156996  -0.0016872
    3   0.0005172  -0.0003238  -0.0016225   0.0076292  -0.0057359  -0.0004642
 Max gradient component =       2.954E-02
 RMS gradient           =       1.057E-02
 Gradient time:  CPU 8.83 s  wall 0.85 s
 Geometry Optimization Parameters
   NAtoms,    NIC,     NZ,  NCons,   NDum,   NFix, NCnnct, MaxDiis
        6      32       0       0       0       0       0       0

 Cartesian Hessian Update
 Hessian Updated using BFGS Update


** GEOMETRY OPTIMIZATION IN DELOCALIZED INTERNAL COORDINATES **
   Searching for a Minimum

   Optimization Cycle:   2

                       Coordinates (Angstroms)
     ATOM                X               Y               Z
      1  O         0.0375621246   -1.0684227629    0.0245301988
      2  C         0.7450179361    0.0609073200    0.1912949225
      3  N        -0.0135102794    1.0792319613    0.4977015798
      4  N        -1.2930017005    0.5869443428    0.5365835157
      5  N        -1.2932705785   -0.6719914552    0.2618165789
      6  H         1.8172024978    0.0133305939    0.0569776894
   Point Group: c1    Number of degrees of freedom:    12


   Energy is   -277.911845858

 Hessian Updated using BFGS Update

 12 Hessian modes will be used to form the next step
  Hessian Eigenvalues:
     0.015297    0.021491    0.025425    0.158564    0.226118    0.274015
     0.363441    0.412320    0.457807    0.482739    0.591932    0.663383

 Minimum Search - Taking Simple RFO Step
 Searching for Lamda that Minimizes Along All modes
 Value Taken    Lamda =  -0.00305849
 Step Taken.  Stepsize is  0.103989

                             Maximum     Tolerance    Cnvgd?
         Gradient           0.018417      0.000015      NO
         Displacement       0.062294      0.000120      NO
         Energy change     -0.003060      0.000000      NO


 New Cartesian Coordinates Obtained by Inverse Iteration

 Displacement from previous Coordinates is:  0.073458
 Adding empirical dispersion correction 
 ----------------------------------------------------------------
 Doing -D3(BJ) with
 s6 =   1.00000
 s8 =   2.26090
 a1 =   0.55450
 a2 =   3.22970
 -D3 energy without 3body term =     -0.0122914286 hartrees
 ----------------------------------------------------------------
             Standard Nuclear Orientation (Angstroms)
    I     Atom           X                Y                Z
 ----------------------------------------------------------------
    1      O       0.0353714526    -1.0644529319     0.0264010274
    2      C       0.7423857564     0.0602247935     0.1910908261
    3      N      -0.0060650604     1.0821426682     0.4990500060
    4      N      -1.2796171368     0.5608337171     0.5280329385
    5      N      -1.3086552418    -0.6587664573     0.2665574992
    6      H       1.8165802301     0.0200182104     0.0577721879
 ----------------------------------------------------------------
 Nuclear Repulsion Energy =   165.3144007817 hartrees
 There are       18 alpha and       18 beta electrons
 Applying Cartesian multipole field
    Component          Value
    ---------          -----
     (2,0,0)        1.00000E-11
     (0,2,0)        2.00000E-10
     (0,0,2)       -3.00000E-10
 Nucleus-field energy     =     0.0000000124 hartrees
 Requested basis set is def2-mSVP
 There are 37 shells and 77 basis functions
 A cutoff of  1.0D-11 yielded    676 shell pairs
 There are      3056 function pairs (      3481 Cartesian)
 Smallest overlap matrix eigenvalue = 6.78E-03
 Guess MOs from SCF MO coefficient file
 Reading MOs from coefficient file
 Reading MOs from coefficient file

 -----------------------------------------------------------------------
  General SCF calculation program by
  Eric Jon Sundstrom, Paul Horn, Yuezhi Mao, Dmitri Zuev, Alec White,
  David Stuck, Shaama M.S., Shane Yost, Joonho Lee, David Small,
  Daniel Levine, Susi Lehtola, Hugh Burton, Evgeny Epifanovsky
 -----------------------------------------------------------------------
 Exchange:  B97-D      Correlation:  B97-D
 Using SG-2 standard quadrature grid
 Dispersion:   Grimme D3
 using 16 threads for integral computing
 -------------------------------------------------------
 OpenMP Integral computing Module                
 Release: version 1.0, May 2013, Q-Chem Inc. Pittsburgh 
 -------------------------------------------------------
 -------------------------------------------------------
 OpenMP BLAS3 based DFT computing Module                
 Release: version 1.0, May 2013, Q-Chem Inc. Pittsburgh 
 -------------------------------------------------------
 A unrestricted SCF calculation will be
 performed using DIIS
 SCF converges when DIIS error is below 1.0e-08
 ---------------------------------------
  Cycle       Energy         DIIS error
 ---------------------------------------
    1    -277.9384776556      1.87e-03  
    2    -277.9111804222      8.57e-04  
    3    -277.9052042353      1.79e-03  
    4    -277.9129774933      2.41e-04  
    5    -277.9130599172      1.60e-04  
    6    -277.9131267380      2.47e-05  
    7    -277.9131280481      1.00e-05  
    8    -277.9131282861      1.26e-06  
    9    -277.9131282903      2.17e-07  
   10    -277.9131282904      1.45e-07  
   11    -277.9131282904      1.64e-08  
   12    -277.9131282904      1.65e-09  Convergence criterion met
 ---------------------------------------
 SCF time:   CPU 47.35s  wall 4.00s 
 SCF   energy in the final basis set =     -277.9131282904
<S^2> =          0.000000000
 No wavefunction analysis requested
 Calculating analytic gradient of the SCF energy
 Gradient of SCF Energy
            1           2           3           4           5           6
    1  -0.0160563   0.0013530  -0.0056956   0.0056181   0.0132632   0.0015177
    2   0.0076524   0.0036660  -0.0084487  -0.0112151   0.0089038  -0.0005585
    3   0.0035430   0.0003324  -0.0007716  -0.0033578   0.0006485  -0.0003945
 Max gradient component =       1.606E-02
 RMS gradient           =       6.975E-03
 Gradient time:  CPU 8.76 s  wall 0.85 s
 Geometry Optimization Parameters
   NAtoms,    NIC,     NZ,  NCons,   NDum,   NFix, NCnnct, MaxDiis
        6      32       0       0       0       0       0       0

 Cartesian Hessian Update
 Hessian Updated using BFGS Update


** GEOMETRY OPTIMIZATION IN DELOCALIZED INTERNAL COORDINATES **
   Searching for a Minimum

   Optimization Cycle:   3

                       Coordinates (Angstroms)
     ATOM                X               Y               Z
      1  O         0.0353714526   -1.0644529319    0.0264010274
      2  C         0.7423857564    0.0602247935    0.1910908261
      3  N        -0.0060650604    1.0821426682    0.4990500060
      4  N        -1.2796171368    0.5608337171    0.5280329385
      5  N        -1.3086552418   -0.6587664573    0.2665574992
      6  H         1.8165802301    0.0200182104    0.0577721879
   Point Group: c1    Number of degrees of freedom:    12


   Energy is   -277.913128290

 Hessian Updated using BFGS Update

 12 Hessian modes will be used to form the next step
  Hessian Eigenvalues:
     0.015302    0.021511    0.025425    0.155010    0.191190    0.296212
     0.363205    0.424943    0.466749    0.542497    0.601021    0.746890

 Minimum Search - Taking Simple RFO Step
 Searching for Lamda that Minimizes Along All modes
 Value Taken    Lamda =  -0.00086668
 Step Taken.  Stepsize is  0.045499

                             Maximum     Tolerance    Cnvgd?
         Gradient           0.017371      0.000015      NO
         Displacement       0.026394      0.000120      NO
         Energy change     -0.001282      0.000000      NO


 New Cartesian Coordinates Obtained by Inverse Iteration

 Displacement from previous Coordinates is:  0.033483
 Adding empirical dispersion correction 
 ----------------------------------------------------------------
 Doing -D3(BJ) with
 s6 =   1.00000
 s8 =   2.26090
 a1 =   0.55450
 a2 =   3.22970
 -D3 energy without 3body term =     -0.0122967351 hartrees
 ----------------------------------------------------------------
             Standard Nuclear Orientation (Angstroms)
    I     Atom           X                Y                Z
 ----------------------------------------------------------------
    1      O       0.0434573520    -1.0727802252     0.0231907544
    2      C       0.7401548403     0.0578997919     0.1919945408
    3      N      -0.0015214023     1.0891049946     0.4974058849
    4      N      -1.2801764449     0.5642878382     0.5314822022
    5      N      -1.3147139943    -0.6606324605     0.2656419703
    6      H       1.8127996491     0.0221200610     0.0591891326
 ----------------------------------------------------------------
 Nuclear Repulsion Energy =   164.5935678255 hartrees
 There are       18 alpha and       18 beta electrons
 Applying Cartesian multipole field
    Component          Value
    ---------          -----
     (2,0,0)        1.00000E-11
     (0,2,0)        2.00000E-10
     (0,0,2)       -3.00000E-10
 Nucleus-field energy     =     0.0000000126 hartrees
 Requested basis set is def2-mSVP
 There are 37 shells and 77 basis functions
 A cutoff of  1.0D-11 yielded    676 shell pairs
 There are      3056 function pairs (      3481 Cartesian)
 Smallest overlap matrix eigenvalue = 6.97E-03
 Guess MOs from SCF MO coefficient file
 Reading MOs from coefficient file
 Reading MOs from coefficient file

 -----------------------------------------------------------------------
  General SCF calculation program by
  Eric Jon Sundstrom, Paul Horn, Yuezhi Mao, Dmitri Zuev, Alec White,
  David Stuck, Shaama M.S., Shane Yost, Joonho Lee, David Small,
  Daniel Levine, Susi Lehtola, Hugh Burton, Evgeny Epifanovsky
 -----------------------------------------------------------------------
 Exchange:  B97-D      Correlation:  B97-D
 Using SG-2 standard quadrature grid
 Dispersion:   Grimme D3
 using 16 threads for integral computing
 -------------------------------------------------------
 OpenMP Integral computing Module                
 Release: version 1.0, May 2013, Q-Chem Inc. Pittsburgh 
 -------------------------------------------------------
 -------------------------------------------------------
 OpenMP BLAS3 based DFT computing Module                
 Release: version 1.0, May 2013, Q-Chem Inc. Pittsburgh 
 -------------------------------------------------------
 A unrestricted SCF calculation will be
 performed using DIIS
 SCF converges when DIIS error is below 1.0e-08
 ---------------------------------------
  Cycle       Energy         DIIS error
 ---------------------------------------
    1    -277.8925815377      5.52e-04  
    2    -277.9136546439      2.10e-04  
    3    -277.9133449433      3.96e-04  
    4    -277.9137410216      1.13e-04  
    5    -277.9137681189      4.48e-05  
    6    -277.9137736745      9.79e-06  
    7    -277.9137738548      3.90e-06  
    8    -277.9137738904      3.95e-07  
    9    -277.9137738908      1.36e-07  
   10    -277.9137738909      6.46e-08  
   11    -277.9137738909      4.92e-09  Convergence criterion met
 ---------------------------------------
 SCF time:   CPU 43.35s  wall 3.00s 
 SCF   energy in the final basis set =     -277.9137738909
<S^2> =         -0.000000000
 No wavefunction analysis requested
 Calculating analytic gradient of the SCF energy
 Gradient of SCF Energy
            1           2           3           4           5           6
    1  -0.0118573   0.0009719  -0.0024433   0.0032631   0.0101361  -0.0000704
    2   0.0007206   0.0031171  -0.0010128  -0.0023822   0.0000255  -0.0004681
    3   0.0014642   0.0010425  -0.0006690  -0.0000357  -0.0016127  -0.0001893
 Max gradient component =       1.186E-02
 RMS gradient           =       3.975E-03
 Gradient time:  CPU 8.78 s  wall 0.86 s
 Geometry Optimization Parameters
   NAtoms,    NIC,     NZ,  NCons,   NDum,   NFix, NCnnct, MaxDiis
        6      32       0       0       0       0       0       0

 Cartesian Hessian Update
 Hessian Updated using BFGS Update


** GEOMETRY OPTIMIZATION IN DELOCALIZED INTERNAL COORDINATES **
   Searching for a Minimum

   Optimization Cycle:   4

                       Coordinates (Angstroms)
     ATOM                X               Y               Z
      1  O         0.0434573520   -1.0727802252    0.0231907544
      2  C         0.7401548403    0.0578997919    0.1919945408
      3  N        -0.0015214023    1.0891049946    0.4974058849
      4  N        -1.2801764449    0.5642878382    0.5314822022
      5  N        -1.3147139943   -0.6606324605    0.2656419703
      6  H         1.8127996491    0.0221200610    0.0591891326
   Point Group: c1    Number of degrees of freedom:    12


   Energy is   -277.913773891

 Hessian Updated using BFGS Update

 12 Hessian modes will be used to form the next step
  Hessian Eigenvalues:
     0.015553    0.021983    0.025427    0.110212    0.166290    0.274997
     0.364290    0.427792    0.463615    0.485747    0.650505    0.719042

 Minimum Search - Taking Simple RFO Step
 Searching for Lamda that Minimizes Along All modes
 Value Taken    Lamda =  -0.00093077
 Step Taken.  Stepsize is  0.101332

                             Maximum     Tolerance    Cnvgd?
         Gradient           0.008573      0.000015      NO
         Displacement       0.051136      0.000120      NO
         Energy change     -0.000646      0.000000      NO


 New Cartesian Coordinates Obtained by Inverse Iteration

 Displacement from previous Coordinates is:  0.065216
 Adding empirical dispersion correction 
 ----------------------------------------------------------------
 Doing -D3(BJ) with
 s6 =   1.00000
 s8 =   2.26090
 a1 =   0.55450
 a2 =   3.22970
 -D3 energy without 3body term =     -0.0123241820 hartrees
 ----------------------------------------------------------------
             Standard Nuclear Orientation (Angstroms)
    I     Atom           X                Y                Z
 ----------------------------------------------------------------
    1      O       0.0596707536    -1.0803671264     0.0180532045
    2      C       0.7407090323     0.0529145663     0.1867629753
    3      N       0.0063429813     1.0891815267     0.5058791895
    4      N      -1.2870779073     0.5686733337     0.5219185645
    5      N      -1.3332378899    -0.6588730818     0.2762103007
    6      H       1.8135930300     0.0284707814     0.0600802505
 ----------------------------------------------------------------
 Nuclear Repulsion Energy =   163.5731162160 hartrees
 There are       18 alpha and       18 beta electrons
 Applying Cartesian multipole field
    Component          Value
    ---------          -----
     (2,0,0)        1.00000E-11
     (0,2,0)        2.00000E-10
     (0,0,2)       -3.00000E-10
 Nucleus-field energy     =     0.0000000127 hartrees
 Requested basis set is def2-mSVP
 There are 37 shells and 77 basis functions
 A cutoff of  1.0D-11 yielded    676 shell pairs
 There are      3056 function pairs (      3481 Cartesian)
 Smallest overlap matrix eigenvalue = 7.19E-03
 Guess MOs from SCF MO coefficient file
 Reading MOs from coefficient file
 Reading MOs from coefficient file

 -----------------------------------------------------------------------
  General SCF calculation program by
  Eric Jon Sundstrom, Paul Horn, Yuezhi Mao, Dmitri Zuev, Alec White,
  David Stuck, Shaama M.S., Shane Yost, Joonho Lee, David Small,
  Daniel Levine, Susi Lehtola, Hugh Burton, Evgeny Epifanovsky
 -----------------------------------------------------------------------
 Exchange:  B97-D      Correlation:  B97-D
 Using SG-2 standard quadrature grid
 Dispersion:   Grimme D3
 using 16 threads for integral computing
 -------------------------------------------------------
 OpenMP Integral computing Module                
 Release: version 1.0, May 2013, Q-Chem Inc. Pittsburgh 
 -------------------------------------------------------
 -------------------------------------------------------
 OpenMP BLAS3 based DFT computing Module                
 Release: version 1.0, May 2013, Q-Chem Inc. Pittsburgh 
 -------------------------------------------------------
 A unrestricted SCF calculation will be
 performed using DIIS
 SCF converges when DIIS error is below 1.0e-08
 ---------------------------------------
  Cycle       Energy         DIIS error
 ---------------------------------------
    1    -277.8879262751      1.20e-03  
    2    -277.9136002901      5.11e-04  
    3    -277.9115476648      1.06e-03  
    4    -277.9140853528      2.66e-04  
    5    -277.9142392664      1.06e-04  
    6    -277.9142693992      8.83e-06  
    7    -277.9142695206      5.47e-06  
    8    -277.9142695842      1.30e-06  
    9    -277.9142695873      7.62e-07  
   10    -277.9142695890      7.36e-08  
   11    -277.9142695890      7.59e-09  Convergence criterion met
 ---------------------------------------
 SCF time:   CPU 43.53s  wall 3.00s 
 SCF   energy in the final basis set =     -277.9142695890
<S^2> =         -0.000000000
 No wavefunction analysis requested
 Calculating analytic gradient of the SCF energy
 Gradient of SCF Energy
            1           2           3           4           5           6
    1  -0.0058309   0.0042132   0.0031977  -0.0042897   0.0038625  -0.0011528
    2  -0.0014949   0.0027919   0.0012200   0.0042558  -0.0063844  -0.0003885
    3  -0.0004456  -0.0016023   0.0035075  -0.0029681   0.0014952   0.0000133
 Max gradient component =       6.384E-03
 RMS gradient           =       3.277E-03
 Gradient time:  CPU 8.82 s  wall 0.84 s
 Geometry Optimization Parameters
   NAtoms,    NIC,     NZ,  NCons,   NDum,   NFix, NCnnct, MaxDiis
        6      32       0       0       0       0       0       0

 Cartesian Hessian Update
 Hessian Updated using BFGS Update


** GEOMETRY OPTIMIZATION IN DELOCALIZED INTERNAL COORDINATES **
   Searching for a Minimum

   Optimization Cycle:   5

                       Coordinates (Angstroms)
     ATOM                X               Y               Z
      1  O         0.0596707536   -1.0803671264    0.0180532045
      2  C         0.7407090323    0.0529145663    0.1867629753
      3  N         0.0063429813    1.0891815267    0.5058791895
      4  N        -1.2870779073    0.5686733337    0.5219185645
      5  N        -1.3332378899   -0.6588730818    0.2762103007
      6  H         1.8135930300    0.0284707814    0.0600802505
   Point Group: c1    Number of degrees of freedom:    12


   Energy is   -277.914269589

 Hessian Updated using BFGS Update

 12 Hessian modes will be used to form the next step
  Hessian Eigenvalues:
     0.017936    0.025402    0.027914    0.062090    0.164071    0.285380
     0.363889    0.430707    0.479705    0.487182    0.655546    0.778071

 Minimum Search - Taking Simple RFO Step
 Searching for Lamda that Minimizes Along All modes
 Value Taken    Lamda =  -0.00102423
 Step Taken.  Stepsize is  0.188020

                             Maximum     Tolerance    Cnvgd?
         Gradient           0.004817      0.000015      NO
         Displacement       0.141712      0.000120      NO
         Energy change     -0.000496      0.000000      NO


 New Cartesian Coordinates Obtained by Inverse Iteration

 Displacement from previous Coordinates is:  0.111537
 Adding empirical dispersion correction 
 ----------------------------------------------------------------
 Doing -D3(BJ) with
 s6 =   1.00000
 s8 =   2.26090
 a1 =   0.55450
 a2 =   3.22970
 -D3 energy without 3body term =     -0.0123422419 hartrees
 ----------------------------------------------------------------
             Standard Nuclear Orientation (Angstroms)
    I     Atom           X                Y                Z
 ----------------------------------------------------------------
    1      O       0.0834690541    -1.0922194438     0.0241422358
    2      C       0.7398714434     0.0426308648     0.1892629464
    3      N       0.0116213833     1.0929720504     0.4874170546
    4      N      -1.2874579556     0.5615381886     0.5487479965
    5      N      -1.3613283741    -0.6433728308     0.2577221470
    6      H       1.8138244490     0.0384511709     0.0616121048
 ----------------------------------------------------------------
 Nuclear Repulsion Energy =   162.6952073026 hartrees
 There are       18 alpha and       18 beta electrons
 Applying Cartesian multipole field
    Component          Value
    ---------          -----
     (2,0,0)        1.00000E-11
     (0,2,0)        2.00000E-10
     (0,0,2)       -3.00000E-10
 Nucleus-field energy     =     0.0000000128 hartrees
 Requested basis set is def2-mSVP
 There are 37 shells and 77 basis functions
 A cutoff of  1.0D-11 yielded    676 shell pairs
 There are      3056 function pairs (      3481 Cartesian)
 Smallest overlap matrix eigenvalue = 7.33E-03
 Guess MOs from SCF MO coefficient file
 Reading MOs from coefficient file
 Reading MOs from coefficient file

 -----------------------------------------------------------------------
  General SCF calculation program by
  Eric Jon Sundstrom, Paul Horn, Yuezhi Mao, Dmitri Zuev, Alec White,
  David Stuck, Shaama M.S., Shane Yost, Joonho Lee, David Small,
  Daniel Levine, Susi Lehtola, Hugh Burton, Evgeny Epifanovsky
 -----------------------------------------------------------------------
 Exchange:  B97-D      Correlation:  B97-D
 Using SG-2 standard quadrature grid
 Dispersion:   Grimme D3
 using 16 threads for integral computing
 -------------------------------------------------------
 OpenMP Integral computing Module                
 Release: version 1.0, May 2013, Q-Chem Inc. Pittsburgh 
 -------------------------------------------------------
 -------------------------------------------------------
 OpenMP BLAS3 based DFT computing Module                
 Release: version 1.0, May 2013, Q-Chem Inc. Pittsburgh 
 -------------------------------------------------------
 A unrestricted SCF calculation will be
 performed using DIIS
 SCF converges when DIIS error is below 1.0e-08
 ---------------------------------------
  Cycle       Energy         DIIS error
 ---------------------------------------
    1    -277.8924034181      1.82e-03  
    2    -277.9127507832      7.62e-04  
    3    -277.9066507294      1.76e-03  
    4    -277.9138907305      3.75e-04  
    5    -277.9141938711      1.55e-04  
    6    -277.9142575715      1.07e-05  
    7    -277.9142577315      7.55e-06  
    8    -277.9142578714      1.38e-06  
    9    -277.9142578743      8.75e-07  
   10    -277.9142578763      1.59e-07  
   11    -277.9142578764      1.43e-08  
   12    -277.9142578764      2.84e-09  Convergence criterion met
 ---------------------------------------
 SCF time:   CPU 47.15s  wall 3.00s 
 SCF   energy in the final basis set =     -277.9142578764
<S^2> =         -0.000000000
 No wavefunction analysis requested
 Calculating analytic gradient of the SCF energy
 Gradient of SCF Energy
            1           2           3           4           5           6
    1  -0.0009632   0.0036043   0.0070816  -0.0080683  -0.0004289  -0.0012254
    2  -0.0019935   0.0011304   0.0039591   0.0003936  -0.0031600  -0.0003297
    3   0.0031903   0.0004887  -0.0052986   0.0097449  -0.0081603   0.0000350
 Max gradient component =       9.745E-03
 RMS gradient           =       4.485E-03
 Gradient time:  CPU 8.80 s  wall 0.85 s
 Geometry Optimization Parameters
   NAtoms,    NIC,     NZ,  NCons,   NDum,   NFix, NCnnct, MaxDiis
        6      32       0       0       0       0       0       0

 Cartesian Hessian Update
 Hessian Updated using BFGS Update


** GEOMETRY OPTIMIZATION IN DELOCALIZED INTERNAL COORDINATES **
   Searching for a Minimum

   Optimization Cycle:   6

                       Coordinates (Angstroms)
     ATOM                X               Y               Z
      1  O         0.0834690541   -1.0922194438    0.0241422358
      2  C         0.7398714434    0.0426308648    0.1892629464
      3  N         0.0116213833    1.0929720504    0.4874170546
      4  N        -1.2874579556    0.5615381886    0.5487479965
      5  N        -1.3613283741   -0.6433728308    0.2577221470
      6  H         1.8138244490    0.0384511709    0.0616121048
   Point Group: c1    Number of degrees of freedom:    12


   Energy is   -277.914257876

 Hessian Updated using BFGS Update

 12 Hessian modes will be used to form the next step
  Hessian Eigenvalues:
     0.020118    0.025370    0.041811    0.078679    0.163917    0.285731
     0.363530    0.431288    0.478454    0.492746    0.644195    0.747134

 Minimum Search - Taking Simple RFO Step
 Searching for Lamda that Minimizes Along All modes
 Value Taken    Lamda =  -0.00082938
 Step Taken.  Stepsize is  0.104377

                             Maximum     Tolerance    Cnvgd?
         Gradient           0.007739      0.000015      NO
         Displacement       0.098132      0.000120      NO
         Energy change      0.000012      0.000000      NO


 New Cartesian Coordinates Obtained by Inverse Iteration

 Displacement from previous Coordinates is:  0.061687
 Adding empirical dispersion correction 
 ----------------------------------------------------------------
 Doing -D3(BJ) with
 s6 =   1.00000
 s8 =   2.26090
 a1 =   0.55450
 a2 =   3.22970
 -D3 energy without 3body term =     -0.0123273766 hartrees
 ----------------------------------------------------------------
             Standard Nuclear Orientation (Angstroms)
    I     Atom           X                Y                Z
 ----------------------------------------------------------------
    1      O       0.0828516543    -1.0907054022     0.0070917565
    2      C       0.7362508204     0.0402851206     0.1938445721
    3      N       0.0100572120     1.0921696539     0.4901816284
    4      N      -1.2836342588     0.5637838759     0.5334608388
    5      N      -1.3570895290    -0.6445577507     0.2783239959
    6      H       1.8115641010     0.0390245026     0.0660016934
 ----------------------------------------------------------------
 Nuclear Repulsion Energy =   162.9925430741 hartrees
 There are       18 alpha and       18 beta electrons
 Applying Cartesian multipole field
    Component          Value
    ---------          -----
     (2,0,0)        1.00000E-11
     (0,2,0)        2.00000E-10
     (0,0,2)       -3.00000E-10
 Nucleus-field energy     =     0.0000000128 hartrees
 Requested basis set is def2-mSVP
 There are 37 shells and 77 basis functions
 A cutoff of  1.0D-11 yielded    676 shell pairs
 There are      3056 function pairs (      3481 Cartesian)
 Smallest overlap matrix eigenvalue = 7.23E-03
 Guess MOs from SCF MO coefficient file
 Reading MOs from coefficient file
 Reading MOs from coefficient file

 -----------------------------------------------------------------------
  General SCF calculation program by
  Eric Jon Sundstrom, Paul Horn, Yuezhi Mao, Dmitri Zuev, Alec White,
  David Stuck, Shaama M.S., Shane Yost, Joonho Lee, David Small,
  Daniel Levine, Susi Lehtola, Hugh Burton, Evgeny Epifanovsky
 -----------------------------------------------------------------------
 Exchange:  B97-D      Correlation:  B97-D
 Using SG-2 standard quadrature grid
 Dispersion:   Grimme D3
 using 16 threads for integral computing
 -------------------------------------------------------
 OpenMP Integral computing Module                
 Release: version 1.0, May 2013, Q-Chem Inc. Pittsburgh 
 -------------------------------------------------------
 -------------------------------------------------------
 OpenMP BLAS3 based DFT computing Module                
 Release: version 1.0, May 2013, Q-Chem Inc. Pittsburgh 
 -------------------------------------------------------
 A unrestricted SCF calculation will be
 performed using DIIS
 SCF converges when DIIS error is below 1.0e-08
 ---------------------------------------
  Cycle       Energy         DIIS error
 ---------------------------------------
    1    -277.9214886866      7.11e-04  
    2    -277.9145905121      1.44e-04  
    3    -277.9141375835      4.41e-04  
    4    -277.9146394452      5.96e-05  
    5    -277.9146471954      2.13e-05  
    6    -277.9146481086      6.58e-06  
    7    -277.9146482031      2.85e-06  
    8    -277.9146482271      4.23e-07  
    9    -277.9146482275      2.09e-07  
   10    -277.9146482277      2.40e-08  
   11    -277.9146482277      3.91e-09  Convergence criterion met
 ---------------------------------------
 SCF time:   CPU 43.02s  wall 3.00s 
 SCF   energy in the final basis set =     -277.9146482277
<S^2> =         -0.000000000
 No wavefunction analysis requested
 Calculating analytic gradient of the SCF energy
 Gradient of SCF Energy
            1           2           3           4           5           6
    1  -0.0016649  -0.0019349   0.0056476  -0.0052169   0.0034938  -0.0003246
    2  -0.0016606   0.0004212   0.0032115  -0.0021836   0.0004725  -0.0002610
    3  -0.0030044   0.0044512  -0.0030856   0.0014341   0.0004284  -0.0002237
 Max gradient component =       5.648E-03
 RMS gradient           =       2.758E-03
 Gradient time:  CPU 8.80 s  wall 0.87 s
 Geometry Optimization Parameters
   NAtoms,    NIC,     NZ,  NCons,   NDum,   NFix, NCnnct, MaxDiis
        6      32       0       0       0       0       0       0

 Cartesian Hessian Update
 Hessian Updated using BFGS Update


** GEOMETRY OPTIMIZATION IN DELOCALIZED INTERNAL COORDINATES **
   Searching for a Minimum

   Optimization Cycle:   7

                       Coordinates (Angstroms)
     ATOM                X               Y               Z
      1  O         0.0828516543   -1.0907054022    0.0070917565
      2  C         0.7362508204    0.0402851206    0.1938445721
      3  N         0.0100572120    1.0921696539    0.4901816284
      4  N        -1.2836342588    0.5637838759    0.5334608388
      5  N        -1.3570895290   -0.6445577507    0.2783239959
      6  H         1.8115641010    0.0390245026    0.0660016934
   Point Group: c1    Number of degrees of freedom:    12


   Energy is   -277.914648228

 Hessian Updated using BFGS Update

 12 Hessian modes will be used to form the next step
  Hessian Eigenvalues:
     0.025100    0.025526    0.043922    0.068285    0.164004    0.322543
     0.362463    0.417237    0.440517    0.484542    0.630377    0.735198

 Minimum Search - Taking Simple RFO Step
 Searching for Lamda that Minimizes Along All modes
 Value Taken    Lamda =  -0.00047163
 Step Taken.  Stepsize is  0.116030

                             Maximum     Tolerance    Cnvgd?
         Gradient           0.004226      0.000015      NO
         Displacement       0.102819      0.000120      NO
         Energy change     -0.000390      0.000000      NO


 New Cartesian Coordinates Obtained by Inverse Iteration

 Displacement from previous Coordinates is:  0.066782
 Adding empirical dispersion correction 
 ----------------------------------------------------------------
 Doing -D3(BJ) with
 s6 =   1.00000
 s8 =   2.26090
 a1 =   0.55450
 a2 =   3.22970
 -D3 energy without 3body term =     -0.0123199157 hartrees
 ----------------------------------------------------------------
             Standard Nuclear Orientation (Angstroms)
    I     Atom           X                Y                Z
 ----------------------------------------------------------------
    1      O       0.0836141337    -1.0934749696     0.0236641532
    2      C       0.7339427643     0.0431526101     0.1779027209
    3      N       0.0085034777     1.0849843236     0.5107962230
    4      N      -1.2799723259     0.5669697999     0.5214765267
    5      N      -1.3574366305    -0.6429384829     0.2744763108
    6      H       1.8113485807     0.0413067190     0.0605885504
 ----------------------------------------------------------------
 Nuclear Repulsion Energy =   163.2351152250 hartrees
 There are       18 alpha and       18 beta electrons
 Applying Cartesian multipole field
    Component          Value
    ---------          -----
     (2,0,0)        1.00000E-11
     (0,2,0)        2.00000E-10
     (0,0,2)       -3.00000E-10
 Nucleus-field energy     =     0.0000000127 hartrees
 Requested basis set is def2-mSVP
 There are 37 shells and 77 basis functions
 A cutoff of  1.0D-11 yielded    676 shell pairs
 There are      3056 function pairs (      3481 Cartesian)
 Smallest overlap matrix eigenvalue = 7.17E-03
 Guess MOs from SCF MO coefficient file
 Reading MOs from coefficient file
 Reading MOs from coefficient file

 -----------------------------------------------------------------------
  General SCF calculation program by
  Eric Jon Sundstrom, Paul Horn, Yuezhi Mao, Dmitri Zuev, Alec White,
  David Stuck, Shaama M.S., Shane Yost, Joonho Lee, David Small,
  Daniel Levine, Susi Lehtola, Hugh Burton, Evgeny Epifanovsky
 -----------------------------------------------------------------------
 Exchange:  B97-D      Correlation:  B97-D
 Using SG-2 standard quadrature grid
 Dispersion:   Grimme D3
 using 16 threads for integral computing
 -------------------------------------------------------
 OpenMP Integral computing Module                
 Release: version 1.0, May 2013, Q-Chem Inc. Pittsburgh 
 -------------------------------------------------------
 -------------------------------------------------------
 OpenMP BLAS3 based DFT computing Module                
 Release: version 1.0, May 2013, Q-Chem Inc. Pittsburgh 
 -------------------------------------------------------
 A unrestricted SCF calculation will be
 performed using DIIS
 SCF converges when DIIS error is below 1.0e-08
 ---------------------------------------
  Cycle       Energy         DIIS error
 ---------------------------------------
    1    -277.9195148712      7.78e-04  
    2    -277.9145572866      1.28e-04  
    3    -277.9142548000      3.64e-04  
    4    -277.9145920520      6.54e-05  
    5    -277.9146015446      2.47e-05  
    6    -277.9146027800      6.74e-06  
    7    -277.9146028759      3.15e-06  
    8    -277.9146029055      4.28e-07  
    9    -277.9146029060      6.36e-08  
   10    -277.9146029060      4.35e-08  
   11    -277.9146029061      2.99e-09  Convergence criterion met
 ---------------------------------------
 SCF time:   CPU 43.58s  wall 3.00s 
 SCF   energy in the final basis set =     -277.9146029061
<S^2> =         -0.000000000
 No wavefunction analysis requested
 Calculating analytic gradient of the SCF energy
 Gradient of SCF Energy
            1           2           3           4           5           6
    1  -0.0015295  -0.0043460   0.0033644  -0.0014497   0.0035246   0.0004363
    2  -0.0020086   0.0029282  -0.0007129  -0.0011705   0.0012473  -0.0002835
    3   0.0031607  -0.0053932   0.0053313  -0.0035829   0.0003505   0.0001337
 Max gradient component =       5.393E-03
 RMS gradient           =       2.827E-03
 Gradient time:  CPU 8.81 s  wall 0.86 s
 Geometry Optimization Parameters
   NAtoms,    NIC,     NZ,  NCons,   NDum,   NFix, NCnnct, MaxDiis
        6      32       0       0       0       0       0       0

 Cartesian Hessian Update
 Hessian Updated using BFGS Update


** GEOMETRY OPTIMIZATION IN DELOCALIZED INTERNAL COORDINATES **
   Searching for a Minimum

   Optimization Cycle:   8

                       Coordinates (Angstroms)
     ATOM                X               Y               Z
      1  O         0.0836141337   -1.0934749696    0.0236641532
      2  C         0.7339427643    0.0431526101    0.1779027209
      3  N         0.0085034777    1.0849843236    0.5107962230
      4  N        -1.2799723259    0.5669697999    0.5214765267
      5  N        -1.3574366305   -0.6429384829    0.2744763108
      6  H         1.8113485807    0.0413067190    0.0605885504
   Point Group: c1    Number of degrees of freedom:    12


   Energy is   -277.914602906

 Hessian Updated using BFGS Update

 12 Hessian modes will be used to form the next step
  Hessian Eigenvalues:
     0.025252    0.041632    0.067877    0.076177    0.163916    0.263939
     0.362849    0.405984    0.438738    0.484573    0.627467    0.737950

 Minimum Search - Taking Simple RFO Step
 Searching for Lamda that Minimizes Along All modes
 Value Taken    Lamda =  -0.00043122
 Step Taken.  Stepsize is  0.070465

                             Maximum     Tolerance    Cnvgd?
         Gradient           0.004739      0.000015      NO
         Displacement       0.059044      0.000120      NO
         Energy change      0.000045      0.000000      NO


 New Cartesian Coordinates Obtained by Inverse Iteration

 Displacement from previous Coordinates is:  0.042316
 Adding empirical dispersion correction 
 ----------------------------------------------------------------
 Doing -D3(BJ) with
 s6 =   1.00000
 s8 =   2.26090
 a1 =   0.55450
 a2 =   3.22970
 -D3 energy without 3body term =     -0.0123329117 hartrees
 ----------------------------------------------------------------
             Standard Nuclear Orientation (Angstroms)
    I     Atom           X                Y                Z
 ----------------------------------------------------------------
    1      O       0.0869669916    -1.0919493286     0.0142241621
    2      C       0.7375562927     0.0390957755     0.1864634482
    3      N       0.0077688861     1.0860138910     0.4986184574
    4      N      -1.2808643335     0.5659684567     0.5284824160
    5      N      -1.3655390756    -0.6421608176     0.2774928560
    6      H       1.8141112388     0.0430320231     0.0636231454
 ----------------------------------------------------------------
 Nuclear Repulsion Energy =   162.9772715628 hartrees
 There are       18 alpha and       18 beta electrons
 Applying Cartesian multipole field
    Component          Value
    ---------          -----
     (2,0,0)        1.00000E-11
     (0,2,0)        2.00000E-10
     (0,0,2)       -3.00000E-10
 Nucleus-field energy     =     0.0000000127 hartrees
 Requested basis set is def2-mSVP
 There are 37 shells and 77 basis functions
 A cutoff of  1.0D-11 yielded    676 shell pairs
 There are      3056 function pairs (      3481 Cartesian)
 Smallest overlap matrix eigenvalue = 7.20E-03
 Guess MOs from SCF MO coefficient file
 Reading MOs from coefficient file
 Reading MOs from coefficient file

 -----------------------------------------------------------------------
  General SCF calculation program by
  Eric Jon Sundstrom, Paul Horn, Yuezhi Mao, Dmitri Zuev, Alec White,
  David Stuck, Shaama M.S., Shane Yost, Joonho Lee, David Small,
  Daniel Levine, Susi Lehtola, Hugh Burton, Evgeny Epifanovsky
 -----------------------------------------------------------------------
 Exchange:  B97-D      Correlation:  B97-D
 Using SG-2 standard quadrature grid
 Dispersion:   Grimme D3
 using 16 threads for integral computing
 -------------------------------------------------------
 OpenMP Integral computing Module                
 Release: version 1.0, May 2013, Q-Chem Inc. Pittsburgh 
 -------------------------------------------------------
 -------------------------------------------------------
 OpenMP BLAS3 based DFT computing Module                
 Release: version 1.0, May 2013, Q-Chem Inc. Pittsburgh 
 -------------------------------------------------------
 A unrestricted SCF calculation will be
 performed using DIIS
 SCF converges when DIIS error is below 1.0e-08
 ---------------------------------------
  Cycle       Energy         DIIS error
 ---------------------------------------
    1    -277.9098422253      5.35e-04  
    2    -277.9147458263      1.78e-04  
    3    -277.9143171080      4.57e-04  
    4    -277.9148081649      8.72e-05  
    5    -277.9148252365      3.37e-05  
    6    -277.9148282433      2.75e-06  
    7    -277.9148282552      1.76e-06  
    8    -277.9148282638      5.94e-07  
    9    -277.9148282646      2.71e-07  
   10    -277.9148282648      2.74e-08  
   11    -277.9148282648      3.40e-09  Convergence criterion met
 ---------------------------------------
 SCF time:   CPU 43.09s  wall 3.00s 
 SCF   energy in the final basis set =     -277.9148282648
<S^2> =          0.000000000
 No wavefunction analysis requested
 Calculating analytic gradient of the SCF energy
 Gradient of SCF Energy
            1           2           3           4           5           6
    1  -0.0014793  -0.0001418   0.0033472  -0.0027946   0.0009173   0.0001512
    2   0.0004539   0.0013799  -0.0004399  -0.0001058  -0.0010847  -0.0002033
    3   0.0002187  -0.0000849   0.0002006  -0.0003447   0.0001224  -0.0001120
 Max gradient component =       3.347E-03
 RMS gradient           =       1.199E-03
 Gradient time:  CPU 8.79 s  wall 0.86 s
 Geometry Optimization Parameters
   NAtoms,    NIC,     NZ,  NCons,   NDum,   NFix, NCnnct, MaxDiis
        6      32       0       0       0       0       0       0

 Cartesian Hessian Update
 Hessian Updated using BFGS Update


** GEOMETRY OPTIMIZATION IN DELOCALIZED INTERNAL COORDINATES **
   Searching for a Minimum

   Optimization Cycle:   9

                       Coordinates (Angstroms)
     ATOM                X               Y               Z
      1  O         0.0869669916   -1.0919493286    0.0142241621
      2  C         0.7375562927    0.0390957755    0.1864634482
      3  N         0.0077688861    1.0860138910    0.4986184574
      4  N        -1.2808643335    0.5659684567    0.5284824160
      5  N        -1.3655390756   -0.6421608176    0.2774928560
      6  H         1.8141112388    0.0430320231    0.0636231454
   Point Group: c1    Number of degrees of freedom:    12


   Energy is   -277.914828265

 Hessian Updated using BFGS Update

 12 Hessian modes will be used to form the next step
  Hessian Eigenvalues:
     0.025250    0.035374    0.067591    0.078795    0.164002    0.247983
     0.362816    0.422218    0.454628    0.486254    0.628586    0.735181

 Minimum Search - Taking Simple RFO Step
 Searching for Lamda that Minimizes Along All modes
 Value Taken    Lamda =  -0.00007275
 Step Taken.  Stepsize is  0.037700

                             Maximum     Tolerance    Cnvgd?
         Gradient           0.002068      0.000015      NO
         Displacement       0.026597      0.000120      NO
         Energy change     -0.000225      0.000000      NO


 New Cartesian Coordinates Obtained by Inverse Iteration

 Displacement from previous Coordinates is:  0.024827
 Adding empirical dispersion correction 
 ----------------------------------------------------------------
 Doing -D3(BJ) with
 s6 =   1.00000
 s8 =   2.26090
 a1 =   0.55450
 a2 =   3.22970
 -D3 energy without 3body term =     -0.0123330018 hartrees
 ----------------------------------------------------------------
             Standard Nuclear Orientation (Angstroms)
    I     Atom           X                Y                Z
 ----------------------------------------------------------------
    1      O       0.0936629408    -1.0957244442     0.0116973564
    2      C       0.7364899220     0.0353234823     0.1871382674
    3      N       0.0072501618     1.0863040126     0.4961768899
    4      N      -1.2784293404     0.5656791487     0.5303590033
    5      N      -1.3720649912    -0.6379640541     0.2784964642
    6      H       1.8130913070     0.0463818547     0.0650365039
 ----------------------------------------------------------------
 Nuclear Repulsion Energy =   162.8403573765 hartrees
 There are       18 alpha and       18 beta electrons
 Applying Cartesian multipole field
    Component          Value
    ---------          -----
     (2,0,0)        1.00000E-11
     (0,2,0)        2.00000E-10
     (0,0,2)       -3.00000E-10
 Nucleus-field energy     =     0.0000000127 hartrees
 Requested basis set is def2-mSVP
 There are 37 shells and 77 basis functions
 A cutoff of  1.0D-11 yielded    676 shell pairs
 There are      3056 function pairs (      3481 Cartesian)
 Smallest overlap matrix eigenvalue = 7.20E-03
 Guess MOs from SCF MO coefficient file
 Reading MOs from coefficient file
 Reading MOs from coefficient file

 -----------------------------------------------------------------------
  General SCF calculation program by
  Eric Jon Sundstrom, Paul Horn, Yuezhi Mao, Dmitri Zuev, Alec White,
  David Stuck, Shaama M.S., Shane Yost, Joonho Lee, David Small,
  Daniel Levine, Susi Lehtola, Hugh Burton, Evgeny Epifanovsky
 -----------------------------------------------------------------------
 Exchange:  B97-D      Correlation:  B97-D
 Using SG-2 standard quadrature grid
 Dispersion:   Grimme D3
 using 16 threads for integral computing
 -------------------------------------------------------
 OpenMP Integral computing Module                
 Release: version 1.0, May 2013, Q-Chem Inc. Pittsburgh 
 -------------------------------------------------------
 -------------------------------------------------------
 OpenMP BLAS3 based DFT computing Module                
 Release: version 1.0, May 2013, Q-Chem Inc. Pittsburgh 
 -------------------------------------------------------
 A unrestricted SCF calculation will be
 performed using DIIS
 SCF converges when DIIS error is below 1.0e-08
 ---------------------------------------
  Cycle       Energy         DIIS error
 ---------------------------------------
    1    -277.9138425458      4.58e-04  
    2    -277.9147012920      2.59e-04  
    3    -277.9140062891      5.89e-04  
    4    -277.9148587214      9.21e-05  
    5    -277.9148758454      4.11e-05  
    6    -277.9148800470      4.64e-06  
    7    -277.9148800857      2.64e-06  
    8    -277.9148801045      2.52e-07  
    9    -277.9148801046      1.19e-07  
   10    -277.9148801047      2.67e-08  
   11    -277.9148801047      3.90e-09  Convergence criterion met
 ---------------------------------------
 SCF time:   CPU 43.48s  wall 4.00s 
 SCF   energy in the final basis set =     -277.9148801047
<S^2> =          0.000000000
 No wavefunction analysis requested
 Calculating analytic gradient of the SCF energy
 Gradient of SCF Energy
            1           2           3           4           5           6
    1  -0.0009566  -0.0009790   0.0023554  -0.0019591   0.0015864  -0.0000471
    2  -0.0001472   0.0004795   0.0003492  -0.0007630   0.0002683  -0.0001869
    3  -0.0002928   0.0007256  -0.0005953   0.0003478  -0.0000810  -0.0001044
 Max gradient component =       2.355E-03
 RMS gradient           =       9.412E-04
 Gradient time:  CPU 8.82 s  wall 0.86 s
 Geometry Optimization Parameters
   NAtoms,    NIC,     NZ,  NCons,   NDum,   NFix, NCnnct, MaxDiis
        6      32       0       0       0       0       0       0

 Cartesian Hessian Update
 Hessian Updated using BFGS Update


** GEOMETRY OPTIMIZATION IN DELOCALIZED INTERNAL COORDINATES **
   Searching for a Minimum

   Optimization Cycle:  10

                       Coordinates (Angstroms)
     ATOM                X               Y               Z
      1  O         0.0936629408   -1.0957244442    0.0116973564
      2  C         0.7364899220    0.0353234823    0.1871382674
      3  N         0.0072501618    1.0863040126    0.4961768899
      4  N        -1.2784293404    0.5656791487    0.5303590033
      5  N        -1.3720649912   -0.6379640541    0.2784964642
      6  H         1.8130913070    0.0463818547    0.0650365039
   Point Group: c1    Number of degrees of freedom:    12


   Energy is   -277.914880105

 Hessian Updated using BFGS Update

 12 Hessian modes will be used to form the next step
  Hessian Eigenvalues:
     0.015822    0.025258    0.070783    0.091251    0.163923    0.220113
     0.363183    0.422809    0.471062    0.484787    0.641766    0.732639

 Minimum Search - Taking Simple RFO Step
 Searching for Lamda that Minimizes Along All modes
 Value Taken    Lamda =  -0.00009932
 Step Taken.  Stepsize is  0.070366

                             Maximum     Tolerance    Cnvgd?
         Gradient           0.001489      0.000015      NO
         Displacement       0.053736      0.000120      NO
         Energy change     -0.000052      0.000000      NO


 New Cartesian Coordinates Obtained by Inverse Iteration

 Displacement from previous Coordinates is:  0.047939
 Adding empirical dispersion correction 
 ----------------------------------------------------------------
 Doing -D3(BJ) with
 s6 =   1.00000
 s8 =   2.26090
 a1 =   0.55450
 a2 =   3.22970
 -D3 energy without 3body term =     -0.0123395235 hartrees
 ----------------------------------------------------------------
             Standard Nuclear Orientation (Angstroms)
    I     Atom           X                Y                Z
 ----------------------------------------------------------------
    1      O       0.1062049839    -1.1014564446     0.0087216235
    2      C       0.7366204229     0.0285287059     0.1861536313
    3      N       0.0056286949     1.0840037150     0.4950067036
    4      N      -1.2741783164     0.5662617140     0.5307333006
    5      N      -1.3880404204    -0.6309331514     0.2816097958
    6      H       1.8137646352     0.0535954610     0.0666794304
 ----------------------------------------------------------------
 Nuclear Repulsion Energy =   162.5407546404 hartrees
 There are       18 alpha and       18 beta electrons
 Applying Cartesian multipole field
    Component          Value
    ---------          -----
     (2,0,0)        1.00000E-11
     (0,2,0)        2.00000E-10
     (0,0,2)       -3.00000E-10
 Nucleus-field energy     =     0.0000000128 hartrees
 Requested basis set is def2-mSVP
 There are 37 shells and 77 basis functions
 A cutoff of  1.0D-11 yielded    676 shell pairs
 There are      3056 function pairs (      3481 Cartesian)
 Smallest overlap matrix eigenvalue = 7.19E-03
 Guess MOs from SCF MO coefficient file
 Reading MOs from coefficient file
 Reading MOs from coefficient file

 -----------------------------------------------------------------------
  General SCF calculation program by
  Eric Jon Sundstrom, Paul Horn, Yuezhi Mao, Dmitri Zuev, Alec White,
  David Stuck, Shaama M.S., Shane Yost, Joonho Lee, David Small,
  Daniel Levine, Susi Lehtola, Hugh Burton, Evgeny Epifanovsky
 -----------------------------------------------------------------------
 Exchange:  B97-D      Correlation:  B97-D
 Using SG-2 standard quadrature grid
 Dispersion:   Grimme D3
 using 16 threads for integral computing
 -------------------------------------------------------
 OpenMP Integral computing Module                
 Release: version 1.0, May 2013, Q-Chem Inc. Pittsburgh 
 -------------------------------------------------------
 -------------------------------------------------------
 OpenMP BLAS3 based DFT computing Module                
 Release: version 1.0, May 2013, Q-Chem Inc. Pittsburgh 
 -------------------------------------------------------
 A unrestricted SCF calculation will be
 performed using DIIS
 SCF converges when DIIS error is below 1.0e-08
 ---------------------------------------
  Cycle       Energy         DIIS error
 ---------------------------------------
    1    -277.9130207806      8.75e-04  
    2    -277.9141559479      5.42e-04  
    3    -277.9113107320      1.20e-03  
    4    -277.9148513927      1.82e-04  
    5    -277.9149169518      8.37e-05  
    6    -277.9149339855      1.50e-05  
    7    -277.9149345186      5.14e-06  
    8    -277.9149345898      4.86e-07  
    9    -277.9149345904      9.27e-08  
   10    -277.9149345904      1.69e-08  
   11    -277.9149345904      8.05e-09  Convergence criterion met
 ---------------------------------------
 SCF time:   CPU 43.77s  wall 3.00s 
 SCF   energy in the final basis set =     -277.9149345904
<S^2> =          0.000000000
 No wavefunction analysis requested
 Calculating analytic gradient of the SCF energy
 Gradient of SCF Energy
            1           2           3           4           5           6
    1  -0.0005682  -0.0003003   0.0001089  -0.0000904   0.0009181  -0.0000680
    2   0.0006246  -0.0005105  -0.0001909   0.0000751   0.0001345  -0.0001328
    3  -0.0002933   0.0007728  -0.0008284   0.0006324  -0.0001788  -0.0001048
 Max gradient component =       9.181E-04
 RMS gradient           =       4.608E-04
 Gradient time:  CPU 8.78 s  wall 0.84 s
 Geometry Optimization Parameters
   NAtoms,    NIC,     NZ,  NCons,   NDum,   NFix, NCnnct, MaxDiis
        6      32       0       0       0       0       0       0

 Cartesian Hessian Update
 Hessian Updated using BFGS Update


** GEOMETRY OPTIMIZATION IN DELOCALIZED INTERNAL COORDINATES **
   Searching for a Minimum

   Optimization Cycle:  11

                       Coordinates (Angstroms)
     ATOM                X               Y               Z
      1  O         0.1062049839   -1.1014564446    0.0087216235
      2  C         0.7366204229    0.0285287059    0.1861536313
      3  N         0.0056286949    1.0840037150    0.4950067036
      4  N        -1.2741783164    0.5662617140    0.5307333006
      5  N        -1.3880404204   -0.6309331514    0.2816097958
      6  H         1.8137646352    0.0535954610    0.0666794304
   Point Group: c1    Number of degrees of freedom:    12


   Energy is   -277.914934590

 Hessian Updated using BFGS Update

 12 Hessian modes will be used to form the next step
  Hessian Eigenvalues:
     0.008561    0.025257    0.070820    0.090979    0.163681    0.237733
     0.363143    0.424558    0.472214    0.486102    0.649165    0.731491

 Minimum Search - Taking Simple RFO Step
 Searching for Lamda that Minimizes Along All modes
 Value Taken    Lamda =  -0.00004910
 Step Taken.  Stepsize is  0.070302

                             Maximum     Tolerance    Cnvgd?
         Gradient           0.000642      0.000015      NO
         Displacement       0.053049      0.000120      NO
         Energy change     -0.000054      0.000000      NO


 New Cartesian Coordinates Obtained by Inverse Iteration

 Displacement from previous Coordinates is:  0.047356
 Adding empirical dispersion correction 
 ----------------------------------------------------------------
 Doing -D3(BJ) with
 s6 =   1.00000
 s8 =   2.26090
 a1 =   0.55450
 a2 =   3.22970
 -D3 energy without 3body term =     -0.0123466694 hartrees
 ----------------------------------------------------------------
             Standard Nuclear Orientation (Angstroms)
    I     Atom           X                Y                Z
 ----------------------------------------------------------------
    1      O       0.1191284778    -1.1081567916     0.0069025831
    2      C       0.7362274206     0.0225050495     0.1838735390
    3      N       0.0056649881     1.0825162037     0.4957811461
    4      N      -1.2711752887     0.5663190193     0.5299902548
    5      N      -1.4038132025    -0.6237544936     0.2844935612
    6      H       1.8139676047     0.0605710126     0.0678634009
 ----------------------------------------------------------------
 Nuclear Repulsion Energy =   162.1925565739 hartrees
 There are       18 alpha and       18 beta electrons
 Applying Cartesian multipole field
    Component          Value
    ---------          -----
     (2,0,0)        1.00000E-11
     (0,2,0)        2.00000E-10
     (0,0,2)       -3.00000E-10
 Nucleus-field energy     =     0.0000000128 hartrees
 Requested basis set is def2-mSVP
 There are 37 shells and 77 basis functions
 A cutoff of  1.0D-11 yielded    676 shell pairs
 There are      3056 function pairs (      3481 Cartesian)
 Smallest overlap matrix eigenvalue = 7.19E-03
 Guess MOs from SCF MO coefficient file
 Reading MOs from coefficient file
 Reading MOs from coefficient file

 -----------------------------------------------------------------------
  General SCF calculation program by
  Eric Jon Sundstrom, Paul Horn, Yuezhi Mao, Dmitri Zuev, Alec White,
  David Stuck, Shaama M.S., Shane Yost, Joonho Lee, David Small,
  Daniel Levine, Susi Lehtola, Hugh Burton, Evgeny Epifanovsky
 -----------------------------------------------------------------------
 Exchange:  B97-D      Correlation:  B97-D
 Using SG-2 standard quadrature grid
 Dispersion:   Grimme D3
 using 16 threads for integral computing
 -------------------------------------------------------
 OpenMP Integral computing Module                
 Release: version 1.0, May 2013, Q-Chem Inc. Pittsburgh 
 -------------------------------------------------------
 -------------------------------------------------------
 OpenMP BLAS3 based DFT computing Module                
 Release: version 1.0, May 2013, Q-Chem Inc. Pittsburgh 
 -------------------------------------------------------
 A unrestricted SCF calculation will be
 performed using DIIS
 SCF converges when DIIS error is below 1.0e-08
 ---------------------------------------
  Cycle       Energy         DIIS error
 ---------------------------------------
    1    -277.9122501471      8.29e-04  
    2    -277.9142416768      5.20e-04  
    3    -277.9115005701      1.17e-03  
    4    -277.9148806285      1.83e-04  
    5    -277.9149488304      7.92e-05  
    6    -277.9149641849      1.35e-05  
    7    -277.9149645901      5.47e-06  
    8    -277.9149646717      5.19e-07  
    9    -277.9149646725      1.07e-07  
   10    -277.9149646725      5.26e-08  
   11    -277.9149646725      1.39e-08  
   12    -277.9149646725      1.36e-09  Convergence criterion met
 ---------------------------------------
 SCF time:   CPU 46.83s  wall 4.00s 
 SCF   energy in the final basis set =     -277.9149646725
<S^2> =          0.000000000
 No wavefunction analysis requested
 Calculating analytic gradient of the SCF energy
 Gradient of SCF Energy
            1           2           3           4           5           6
    1  -0.0004563  -0.0003587  -0.0006601   0.0005688   0.0009635  -0.0000572
    2   0.0005680  -0.0009019  -0.0000977   0.0000841   0.0004745  -0.0001270
    3   0.0000606   0.0000828  -0.0002725   0.0004024  -0.0002053  -0.0000680
 Max gradient component =       9.635E-04
 RMS gradient           =       4.543E-04
 Gradient time:  CPU 8.80 s  wall 0.86 s
 Geometry Optimization Parameters
   NAtoms,    NIC,     NZ,  NCons,   NDum,   NFix, NCnnct, MaxDiis
        6      32       0       0       0       0       0       0

 Cartesian Hessian Update
 Hessian Updated using BFGS Update


** GEOMETRY OPTIMIZATION IN DELOCALIZED INTERNAL COORDINATES **
   Searching for a Minimum

   Optimization Cycle:  12

                       Coordinates (Angstroms)
     ATOM                X               Y               Z
      1  O         0.1191284778   -1.1081567916    0.0069025831
      2  C         0.7362274206    0.0225050495    0.1838735390
      3  N         0.0056649881    1.0825162037    0.4957811461
      4  N        -1.2711752887    0.5663190193    0.5299902548
      5  N        -1.4038132025   -0.6237544936    0.2844935612
      6  H         1.8139676047    0.0605710126    0.0678634009
   Point Group: c1    Number of degrees of freedom:    12


   Energy is   -277.914964673

 Hessian Updated using BFGS Update

 12 Hessian modes will be used to form the next step
  Hessian Eigenvalues:
     0.002906    0.025261    0.070942    0.092814    0.163223    0.244692
     0.363295    0.427847    0.477869    0.489331    0.660799    0.728392

 Minimum Search - Taking Simple RFO Step
 Searching for Lamda that Minimizes Along All modes
 Value Taken    Lamda =  -0.00007240
 Step Taken.  Stepsize is  0.151190

                             Maximum     Tolerance    Cnvgd?
         Gradient           0.000926      0.000015      NO
         Displacement       0.113452      0.000120      NO
         Energy change     -0.000030      0.000000      NO


 New Cartesian Coordinates Obtained by Inverse Iteration

 Displacement from previous Coordinates is:  0.102002
 Adding empirical dispersion correction 
 ----------------------------------------------------------------
 Doing -D3(BJ) with
 s6 =   1.00000
 s8 =   2.26090
 a1 =   0.55450
 a2 =   3.22970
 -D3 energy without 3body term =     -0.0123781499 hartrees
 ----------------------------------------------------------------
             Standard Nuclear Orientation (Angstroms)
    I     Atom           X                Y                Z
 ----------------------------------------------------------------
    1      O       0.1470994831    -1.1219249365     0.0016928975
    2      C       0.7361290878     0.0097407769     0.1804788237
    3      N       0.0068853114     1.0794880135     0.4962937391
    4      N      -1.2662817348     0.5658582643     0.5284857466
    5      N      -1.4383885403    -0.6084391947     0.2915245985
    6      H       1.8145563928     0.0752770765     0.0704286798
 ----------------------------------------------------------------
 Nuclear Repulsion Energy =   161.4208989796 hartrees
 There are       18 alpha and       18 beta electrons
 Applying Cartesian multipole field
    Component          Value
    ---------          -----
     (2,0,0)        1.00000E-11
     (0,2,0)        2.00000E-10
     (0,0,2)       -3.00000E-10
 Nucleus-field energy     =     0.0000000128 hartrees
 Requested basis set is def2-mSVP
 There are 37 shells and 77 basis functions
 A cutoff of  1.0D-11 yielded    675 shell pairs
 There are      3055 function pairs (      3480 Cartesian)
 Smallest overlap matrix eigenvalue = 7.18E-03
 Guess MOs from SCF MO coefficient file
 Reading MOs from coefficient file
 Reading MOs from coefficient file

 -----------------------------------------------------------------------
  General SCF calculation program by
  Eric Jon Sundstrom, Paul Horn, Yuezhi Mao, Dmitri Zuev, Alec White,
  David Stuck, Shaama M.S., Shane Yost, Joonho Lee, David Small,
  Daniel Levine, Susi Lehtola, Hugh Burton, Evgeny Epifanovsky
 -----------------------------------------------------------------------
 Exchange:  B97-D      Correlation:  B97-D
 Using SG-2 standard quadrature grid
 Dispersion:   Grimme D3
[...]

--------------------------------------------------------------
User input:
--------------------------------------------------------------

$molecule
read
$end

$rem
JOBTYPE                   FREQ
METHOD                    B97-D3
DFT_D                     D3_BJ
BASIS                     def2-mSVP
UNRESTRICTED              TRUE
SCF_ALGORITHM             DIIS
MAX_SCF_CYCLES            150
SCF_CONVERGENCE           8
SYM_IGNORE                TRUE
SYMMETRY                  FALSE
WAVEFUNCTION_ANALYSIS     FALSE
$end
--------------------------------------------------------------
 Adding empirical dispersion correction 
 ----------------------------------------------------------------
 Doing -D3(BJ) with
 s6 =   1.00000
 s8 =   2.26090
 a1 =   0.55450
 a2 =   3.22970
 -D3 energy without 3body term =     -0.0113772283 hartrees
 ----------------------------------------------------------------
             Standard Nuclear Orientation (Angstroms)
    I     Atom           X                Y                Z
 ----------------------------------------------------------------
    1      O       0.8159080744    -1.3395465258    -0.1072036838
    2      C       0.9527057712    -0.1573865953     0.1217106885
    3      N      -0.0859126532     0.7739486006     0.4319864457
    4      N      -1.2483080965     0.3222345937     0.4687904714
    5      N      -2.3467360728     0.0146790590     0.5282156955
    6      H       1.9123428308     0.3860708826     0.1254049212
 ----------------------------------------------------------------
 Nuclear Repulsion Energy =   147.9925238880 hartrees
 There are       18 alpha and       18 beta electrons
 Requested basis set is def2-mSVP
 There are 37 shells and 77 basis functions

 Total QAlloc Memory Limit   2000 MB
 Mega-Array Size       188 MB
 MEM_STATIC part       192 MB

                       Distance Matrix (Angstroms)
             O (  1)   C (  2)   N (  3)   N (  4)   N (  5)
   C (  2)  1.211865
   N (  3)  2.360269  1.429120
   N (  4)  2.711877  2.279246  1.247623
   N (  5)  3.498572  3.328839  2.386854  1.142220
   H (  6)  2.057676  1.102843  2.058511  3.179890  4.294175
 
 A cutoff of  1.0D-11 yielded    653 shell pairs
 There are      2993 function pairs (      3411 Cartesian)
 
 -------------------------------------------------------
 OpenMP Integral Computing Module                       
 Release: version 1.0, May 2013, Q-Chem Inc. Pittsburgh 
 -------------------------------------------------------
 Integral Job Info:
 Integral job number is                      11
 Integral operator is                         1
 short-range coefficients                     0
 long-range coefficients              100000000
 Omega coefficients                           0
 if combine SR and LR in K                    0
 Integral screening is                        0
 Integral computing path is                   2
 max size of driver memory is            800000
 size of driver memory is                593474
 size of scratch memory is              1809772
 max col of scratch BK array               1296
 max len of scratch array in speh3          155
 max len of scratch index in speh4           18
 max int batch size is                      520
 min int batch size is                       52
 fixed nKL is                                52
 max L of basis functions is                  2
 order of int derivative is                   0
 number of shells is                         37
 number of basis is                          82
 number of cartesian basis is                82
 number of contracted shell pairs           653
 number of primitive shell pairs           1773
 maxK2 (contraction) of shell pair           25
 max number of K2 of shell pair               1
 max number of CS2 of shell pair            133
 max number of PS2 of shell pair            310
 mem total for path MDJ                  517836
 -------------------------------------------------------
 Smallest overlap matrix eigenvalue = 2.57E-03
 Guess from superposition of atomic densities
 Warning:  Energy on first SCF cycle will be non-variational
 SAD guess density has 36.000000 electrons

 -----------------------------------------------------------------------
  General SCF calculation program by
  Eric Jon Sundstrom, Paul Horn, Yuezhi Mao, Dmitri Zuev, Alec White,
  David Stuck, Shaama M.S., Shane Yost, Joonho Lee, David Small,
  Daniel Levine, Susi Lehtola, Hugh Burton, Evgeny Epifanovsky
 -----------------------------------------------------------------------
 Exchange:  B97-D      Correlation:  B97-D
 Using SG-2 standard quadrature grid
 Dispersion:   Grimme D3
 using 16 threads for integral computing
 -------------------------------------------------------
 OpenMP Integral computing Module                
 Release: version 1.0, May 2013, Q-Chem Inc. Pittsburgh 
 -------------------------------------------------------
 -------------------------------------------------------
 OpenMP BLAS3 based DFT computing Module                
 Release: version 1.0, May 2013, Q-Chem Inc. Pittsburgh 
 -------------------------------------------------------
 A unrestricted SCF calculation will be
 performed using DIIS
 SCF converges when DIIS error is below 1.0e-08
 ---------------------------------------
  Cycle       Energy         DIIS error
 ---------------------------------------
    1    -278.8938366765      4.56e-02  
    2    -277.8156817069      7.23e-03  
    3    -275.2812912935      2.73e-02  
    4    -277.7660873309      7.50e-03  
    5    -277.8748298660      5.05e-03  
    6    -277.9241910304      2.70e-03  
    7    -277.9411049139      7.49e-04  
    8    -277.9425333637      3.18e-04  
    9    -277.9427511694      9.05e-05  
   10    -277.9427788182      1.40e-05  
   11    -277.9427794041      1.77e-06  
   12    -277.9427794115      7.30e-07  
   13    -277.9427794131      1.74e-07  
   14    -277.9427794132      1.66e-08  
   15    -277.9427794132      1.68e-09  Convergence criterion met
 ---------------------------------------
 SCF time:   CPU 57.66s  wall 4.00s 
 SCF   energy in the final basis set =     -277.9427794132
<S^2> =          0.000000000
 No wavefunction analysis requested
 Calculating MO derivatives via CPSCF
 D1JvT checksum  = 85392 6927.838638560
 D1KAT checksum  = 172008 716.883179730
   1         3          18      0.335565    0.110081
   2         3          18      0.026317    0.008671
   3         3          18      0.001513    0.000448
   4        12           9      0.000035    0.000014
   5        21           0      0.000000    0.000000    Roots Converged
 Time for AOints: 4.0 s (CPU) 0.3 s (wall)
 ------------------------------------------------------------------------------
                     AOints        : Timing summary (seconds)
 ------------------------------------------------------------------------------
     job step          cpu (% of tot)      sys (% of tot)     wall (% of tot)
 ------------------------------------------------------------------------------
  cpscf_lag         0.4861E+02 (50.1)   0.2630E-03 (53.2)   0.1351E+02 (81.2)
  iterzp            0.4421E+02 (45.5)   0.1840E-03 (37.2)   0.2779E+01 (16.7)
  make_fx           0.0000E+00 ( 0.0)   0.0000E+00 ( 0.0)   0.0000E+00 ( 0.0)
  AOints            0.4044E+01 ( 4.2)   0.4600E-04 ( 9.3)   0.3358E+00 ( 2.0)
 ------------------------------------------------------------------------------
   Grand Totals     0.9707E+02          0.4940E-03          0.1664E+02
 ------------------------------------------------------------------------------
 Calculating analytic Hessian of the SCF energy
 Polarizability Matrix (a.u.)
            1           2           3
    1 -55.9173662  -0.6496556   4.5856781
    2  -0.6496556 -26.7955241  -2.5908406
    3   4.5856781  -2.5908406 -14.9803405
 Running MAKENN_D3_FD2ND
 
 Direct stationary perturbation theory relativistic correction:
 
 rels  =       0.088037637905
 relv  =      -0.386476995040
 rel2e =       0.000000000000
 E_rel =      -0.298439357135
 
 Hessian of the SCF Energy
            1           2           3           4           5           6
    1   0.0919025   0.0787441   0.0086299  -0.1238682  -0.0879610  -0.0112892
    2   0.0787441   0.7969296   0.1507687  -0.1100782  -0.6996992  -0.1192700
    3   0.0086299   0.1507687   0.0548731  -0.0158611  -0.1217585  -0.0861619
    4  -0.1238682  -0.1100782  -0.0158611   0.5729170   0.1634671  -0.0121865
    5  -0.0879610  -0.6996992  -0.1217585   0.1634671   0.8928030   0.1319321
    6  -0.0112892  -0.1192700  -0.0861619  -0.0121865   0.1319321   0.1943933
    7   0.0048176   0.0587147   0.0140685  -0.1168129   0.0423371   0.0170020
    8   0.0337932  -0.0597478  -0.0206493   0.0437167  -0.1015493  -0.0169346
    9   0.0088955  -0.0234701   0.0157632   0.0172540  -0.0167375  -0.0493097
   10   0.0181748  -0.0290834  -0.0083922  -0.1278987  -0.0021535   0.0131759
   11   0.0070218  -0.0181170  -0.0038620  -0.0056617   0.0267974   0.0076046
   12  -0.0009201   0.0002349  -0.0031490   0.0124818   0.0071853  -0.0065337
   13  -0.0000838   0.0135561   0.0028233   0.0339781  -0.0216892  -0.0078280
   14  -0.0002991   0.0072217   0.0014996   0.0097635  -0.0139205  -0.0048728
   15  -0.0000123  -0.0000613   0.0001273  -0.0013475  -0.0013384   0.0041380
   16   0.0090572  -0.0118533  -0.0012683  -0.2383152  -0.0940005   0.0011258
   17  -0.0312990  -0.0265874  -0.0059985  -0.1012074  -0.1044315   0.0015407
   18  -0.0053037  -0.0082022   0.0185473  -0.0003407   0.0007170  -0.0565260
            7           8           9          10          11          12
    1   0.0048176   0.0337932   0.0088955   0.0181748   0.0070218  -0.0009201
    2   0.0587147  -0.0597478  -0.0234701  -0.0290834  -0.0181170   0.0002349
    3   0.0140685  -0.0206493   0.0157632  -0.0083922  -0.0038620  -0.0031490
    4  -0.1168129   0.0437167   0.0172540  -0.1278987  -0.0056617   0.0124818
    5   0.0423371  -0.1015493  -0.0167375  -0.0021535   0.0267974   0.0071853
    6   0.0170020  -0.0169346  -0.0493097   0.0131759   0.0076046  -0.0065337
    7   0.6520601   0.0479268  -0.0578187  -0.4335873  -0.1172281   0.0177044
    8   0.0479268   0.2610550   0.0386797  -0.0897843  -0.1211449  -0.0027855
    9  -0.0578187   0.0386797   0.0638268   0.0234397   0.0003177  -0.0622108
   10  -0.4335873  -0.0897843   0.0234397   1.5963999   0.3711915  -0.0893110
   11  -0.1172281  -0.1211449   0.0003177   0.3711915   0.2284016  -0.0186692
   12   0.0177044  -0.0027855  -0.0622108  -0.0893110  -0.0186692   0.1243509
   13  -0.0783261  -0.0311819   0.0051465  -1.0478226  -0.2599099   0.0575054
   14  -0.0457795   0.0164300   0.0032658  -0.2621460  -0.1182182   0.0167325
   15   0.0021632   0.0016308   0.0255338   0.0570097   0.0164781  -0.0603886
   16  -0.0281513  -0.0044705   0.0030831  -0.0052660   0.0045863   0.0025395
   17   0.0140290   0.0049569  -0.0020557   0.0119757   0.0022810  -0.0026979
   18   0.0068806   0.0000590   0.0063968   0.0040779  -0.0018692   0.0079312
           13          14          15          16          17          18
    1  -0.0000838  -0.0002991  -0.0000123   0.0090572  -0.0312990  -0.0053037
    2   0.0135561   0.0072217  -0.0000613  -0.0118533  -0.0265874  -0.0082022
    3   0.0028233   0.0014996   0.0001273  -0.0012683  -0.0059985   0.0185473
    4   0.0339781   0.0097635  -0.0013475  -0.2383152  -0.1012074  -0.0003407
    5  -0.0216892  -0.0139205  -0.0013384  -0.0940005  -0.1044315   0.0007170
    6  -0.0078280  -0.0048728   0.0041380   0.0011258   0.0015407  -0.0565260
    7  -0.0783261  -0.0457795   0.0021632  -0.0281513   0.0140290   0.0068806
    8  -0.0311819   0.0164300   0.0016308  -0.0044705   0.0049569   0.0000590
    9   0.0051465   0.0032658   0.0255338   0.0030831  -0.0020557   0.0063968
   10  -1.0478226  -0.2621460   0.0570097  -0.0052660   0.0119757   0.0040779
   11  -0.2599099  -0.1182182   0.0164781   0.0045863   0.0022810  -0.0018692
   12   0.0575054   0.0167325  -0.0603886   0.0025395  -0.0026979   0.0079312
   13   1.0920843   0.2998361  -0.0572627   0.0001703  -0.0006112  -0.0003844
   14   0.2998361   0.1087473  -0.0171703  -0.0013750  -0.0002605   0.0005452
   15  -0.0572627  -0.0171703   0.0325744  -0.0005504   0.0004611  -0.0019849
   16   0.0001703  -0.0013750  -0.0005504   0.2625051   0.1071129  -0.0049296
   17  -0.0006112  -0.0002605   0.0004611   0.1071129   0.1240414   0.0087502
   18  -0.0003844   0.0005452  -0.0019849  -0.0049296   0.0087502   0.0256355
 Gradient time:  CPU 139.22 s  wall 38.33 s
 **********************************************************************
 **                                                                  **
 **                       VIBRATIONAL ANALYSIS                       **
 **                       --------------------                       **
 **                                                                  **
 **        VIBRATIONAL FREQUENCIES (CM**-1) AND NORMAL MODES         **
 **     FORCE CONSTANTS (mDYN/ANGSTROM) AND REDUCED MASSES (AMU)     **
 **                  INFRARED INTENSITIES (KM/MOL)                   **
 **                                                                  **
 **********************************************************************
 

 Mode:                 1                      2                      3
 Frequency:       163.21                 245.71                 492.19
 Force Cnst:      0.2094                 0.1021                 1.9456
 Red. Mass:      13.3399                 2.8705                13.6313
 IR Active:          YES                    YES                    YES
 IR Intens:        0.677                 10.290                  0.716
 Raman Active:       YES                    YES                    YES
               X      Y      Z        X      Y      Z        X      Y      Z
 O          0.554 -0.066 -0.075   -0.013  0.025 -0.120    0.333 -0.277 -0.095
 C          0.098 -0.025 -0.018    0.028 -0.051  0.245   -0.104 -0.241 -0.039
 N         -0.136 -0.309 -0.047   -0.021  0.038 -0.186   -0.058  0.146  0.039
 N         -0.201 -0.111  0.000   -0.012  0.022 -0.104   -0.234  0.691  0.166
 N         -0.374  0.496  0.143    0.017 -0.031  0.153    0.016 -0.307 -0.064
 H         -0.080  0.296  0.064    0.101 -0.185  0.897   -0.202 -0.085  0.003
 TransDip  -0.026  0.002  0.003    0.011 -0.021  0.100    0.005 -0.026 -0.006

 Mode:                 4                      5                      6
 Frequency:       587.07                 802.77                 925.35
 Force Cnst:      2.5799                 4.3539                 3.3563
 Red. Mass:      12.7050                11.4667                 6.6528
 IR Active:          YES                    YES                    YES
 IR Intens:       13.341                 49.358                156.623
 Raman Active:       YES                    YES                    YES
               X      Y      Z        X      Y      Z        X      Y      Z
 O         -0.006  0.012 -0.067    0.209 -0.240 -0.073   -0.070 -0.055 -0.004
 C          0.011 -0.023  0.105   -0.413 -0.114  0.023    0.503 -0.122 -0.082
 N         -0.048  0.090 -0.423   -0.074  0.581  0.129   -0.028  0.322  0.070
 N          0.082 -0.150  0.735    0.144 -0.337 -0.087   -0.128 -0.083 -0.003
 N         -0.039  0.071 -0.347    0.074  0.137  0.021   -0.240 -0.047  0.017
 H          0.033 -0.064  0.306   -0.407 -0.133  0.017    0.626 -0.336 -0.141
 TransDip   0.012 -0.024  0.114   -0.221 -0.039  0.017    0.349 -0.182 -0.077

 Mode:                 7                      8                      9
 Frequency:       991.20                1279.40                1391.29
 Force Cnst:      0.9222                10.1637                 1.3334
 Red. Mass:       1.5931                10.5387                 1.1691
 IR Active:          YES                    YES                    YES
 IR Intens:        0.023                306.715                  8.890
 Raman Active:       YES                    YES                    YES
               X      Y      Z        X      Y      Z        X      Y      Z
 O          0.006 -0.012  0.057    0.051  0.068  0.008   -0.038 -0.056 -0.007
 C         -0.024  0.044 -0.210   -0.256  0.093  0.048    0.051 -0.008 -0.008
 N          0.004 -0.007  0.034    0.686  0.057 -0.065    0.060  0.021 -0.002
 N          0.002 -0.004  0.020   -0.165 -0.054  0.007   -0.007 -0.007 -0.001
 N         -0.001  0.001 -0.007   -0.368 -0.126  0.015   -0.023 -0.007  0.001
 H          0.108 -0.197  0.948    0.093 -0.485 -0.112   -0.420  0.871  0.229
 TransDip   0.000 -0.001  0.005   -0.551  0.070  0.076   -0.082  0.045  0.019

 Mode:                10                     11                     12
 Frequency:      1755.27                2232.58                3012.68
 Force Cnst:     16.4588                40.7147                 5.8430
 Red. Mass:       9.0669                13.8639                 1.0926
 IR Active:          YES                    YES                    YES
 IR Intens:      263.561                332.603                 68.234
 Raman Active:       YES                    YES                    YES
               X      Y      Z        X      Y      Z        X      Y      Z
 O         -0.053 -0.457 -0.089    0.005 -0.025 -0.006    0.001  0.004  0.001
 C          0.055  0.642  0.127   -0.042  0.028  0.011   -0.075 -0.046 -0.001
 N         -0.016 -0.030 -0.004   -0.148 -0.036  0.009   -0.003 -0.000  0.000
 N         -0.028  0.014  0.006    0.757  0.195 -0.045    0.005  0.002 -0.000
 N          0.016 -0.002 -0.002   -0.570 -0.153  0.032   -0.002 -0.001  0.000
 H          0.565 -0.139 -0.093   -0.100 -0.016  0.008    0.875  0.477 -0.000
 TransDip  -0.282  0.420  0.119    0.578  0.068 -0.051   -0.238 -0.115  0.003

 STANDARD THERMODYNAMIC QUANTITIES AT   298.15 K  AND     1.00 ATM

   This Molecule has  0 Imaginary Frequencies
   Zero point vibrational energy:       19.841 kcal/mol

   Atom    1 Element O  Has Mass   15.99491
   Atom    2 Element C  Has Mass   12.00000
   Atom    3 Element N  Has Mass   14.00307
   Atom    4 Element N  Has Mass   14.00307
   Atom    5 Element N  Has Mass   14.00307
   Atom    6 Element H  Has Mass    1.00783
   Molecular Mass:    71.011950 amu
   Principal axes and moments of inertia in amu*Bohr^2:
                             1           2           3
    Eigenvalues --      106.26655   457.98618   564.25268
          X               0.93427     0.33940     0.10936
          Y              -0.31350     0.92794    -0.20159
          Z              -0.16990     0.15406     0.97335
   Rotational Symmetry Number is   1
   The Molecule is an Asymmetric Top
   Translational Enthalpy:        0.889 kcal/mol
   Rotational Enthalpy:           0.889 kcal/mol
   Vibrational Enthalpy:         20.905 kcal/mol
   gas constant (RT):             0.592 kcal/mol
   Translational Entropy:        38.697  cal/mol.K
   Rotational Entropy:           24.821  cal/mol.K
   Vibrational Entropy:           5.905  cal/mol.K

   Total Enthalpy:               23.275 kcal/mol
   Total Entropy:                69.424  cal/mol.K
Archival summary:
1\1\nid00458\FREQ\ProcedureUnspecified\BasisUnspecified\1311\cgrambow\ThuJun2116:23:012018ThuJun2116:23:012018\0\\#,FREQ,ProcedureUnspecified,BasisUnspecified,\\0,1\N\N,1,1.14222\N,1,1.24762,2,174.263\C,3,1.42912,1,116.587,2,-179.93,0\H,4,1.10284,3,108.091,1,179.928,0\O,4,1.21187,3,126.49,1,-0.0772999,0\\\@

 Total job time:  43.34s(wall), 202.10s(cpu) 
 Thu Jun 21 16:23:01 2018

        *************************************************************
        *                                                           *
        *  Thank you very much for using Q-Chem.  Have a nice day.  *
        *                                                           *
        *************************************************************


0 sent ACK to 0 
now end server 0 ... 
cleanup process ... done
remove work dirs /tmp/qchem44046.0 -- /tmp/qchem44046.0
rm -rf /tmp/qchem44046.0
rm -rf /tmp/qchem44046
