
Running Job 1 of 3 ts_optfreq0163.in
qchem ts_optfreq0163.in_12469.0 /tmp/qchem12469/ 1
/global/common/cori/software/qchem/5.1/exe/qcprog.exe ts_optfreq0163.in_12469.0 /tmp/qchem12469/
Check license passed

                  Welcome to Q-Chem
     A Quantum Leap Into The Future Of Chemistry


 Q-Chem 5.1, Q-Chem, Inc., Pleasanton, CA (2018)

 Yihan Shao,  Zhengting Gan,  E. Epifanovsky,  A. T. B. Gilbert,  M. Wormit,  
 J. Kussmann,  A. W. Lange,  A. Behn,  Jia Deng,  Xintian Feng,  D. Ghosh,  
 M. Goldey,  P. R. Horn,  L. D. Jacobson,  I. Kaliman,  T. Kus,  A. Landau,  
 Jie Liu,  E. I. Proynov,  R. M. Richard,  R. P. Steele,  E. J. Sundstrom,  
 H. L. Woodcock III,  P. M. Zimmerman,  D. Zuev,  B. Albrecht,  E. Alguire,  
 S. A. Baeppler,  D. Barton,  Z. Benda,  Y. A. Bernard,  E. J. Berquist,  
 K. B. Bravaya,  H. Burton,  D. Casanova,  Chun-Min Chang,  Yunqing Chen,  
 A. Chien,  K. D. Closser,  M. P. Coons,  S. Coriani,  S. Dasgupta,  
 A. L. Dempwolff,  M. Diedenhofen,  Hainam Do,  R. G. Edgar,  Po-Tung Fang,  
 S. Faraji,  S. Fatehi,  Qingguo Feng,  K. D. Fenk,  J. Fosso-Tande,  
 Qinghui Ge,  A. Ghysels,  G. Gidofalvi,  J. Gomes,  J. Gonthier,  A. Gunina,  
 D. Hait,  M. W. D. Hanson-Heine,  P. H. P. Harbach,  A. W. Hauser,  
 J. E. Herr,  E. G. Hohenstein,  Z. C. Holden,  Kerwin Hui,  B. C. Huynh,  
 T.-C. Jagau,  Hyunjun Ji,  B. Kaduk,  K. Khistyaev,  Jaehoon Kim,  
 P. Klunzinger,  K. Koh,  D. Kosenkov,  L. Koulias,  T. Kowalczyk,  
 C. M. Krauter,  A. Kunitsa,  Ka Un Lao,  A. Laurent,  K. V. Lawler,  
 Joonho Lee,  D. Lefrancois,  S. Lehtola,  D. S. Levine,  Yi-Pei Li,  
 You-Sheng Lin,  Fenglai Liu,  E. Livshits,  A. Luenser,  P. Manohar,  
 E. Mansoor,  S. F. Manzer,  Shan-Ping Mao,  Yuezhi Mao,  N. Mardirossian,  
 A. V. Marenich,  T. Markovich,  L. A. Martinez-Martinez,  S. A. Maurer,  
 N. J. Mayhall,  S. C. McKenzie,  J.-M. Mewes,  A. F. Morrison,  
 J. W. Mullinax,  K. Nanda,  T. S. Nguyen-Beck,  R. Olivares-Amaya,  
 J. A. Parkhill,  T. M. Perrine,  F. Plasser,  P. Pokhilko,  S. Prager,  
 A. Prociuk,  E. Ramos,  D. R. Rehn,  F. Rob,  M. Schneider,  N. Sergueev,  
 S. M. Sharada,  S. Sharma,  D. W. Small,  T. Stauch,  T. Stein,  
 Yu-Chuan Su,  A. J. W. Thom,  A. Tkatchenko,  T. Tsuchimochi,  N. M. Tubman,  
 L. Vogt,  M. L. Vidal,  O. Vydrov,  M. A. Watson,  J. Wenzel,  
 M. de Wergifosse,  T. A. Wesolowski,  A. White,  J. Witte,  A. Yamada,  
 Jun Yang,  K. Yao,  S. Yeganeh,  S. R. Yost,  Zhi-Qiang You,  A. Zech,  
 Igor Ying Zhang,  Xing Zhang,  Yan Zhao,  Ying Zhu,  B. R. Brooks,  
 G. K. L. Chan,  C. J. Cramer,  M. S. Gordon,  W. J. Hehre,  A. Klamt,  
 M. W. Schmidt,  C. D. Sherrill,  D. G. Truhlar,  A. Aspuru-Guzik,  R. Baer,  
 A. T. Bell,  N. A. Besley,  Jeng-Da Chai,  R. A. DiStasio Jr.,  A. Dreuw,  
 B. D. Dunietz,  T. R. Furlani,  Chao-Ping Hsu,  Yousung Jung,  Jing Kong,  
 D. S. Lambrecht,  WanZhen Liang,  C. Ochsenfeld,  V. A. Rassolov,  
 L. V. Slipchenko,  J. E. Subotnik,  T. Van Voorhis,  J. M. Herbert,  
 A. I. Krylov,  P. M. W. Gill,  M. Head-Gordon

 Contributors to earlier versions of Q-Chem not listed above: 
 R. D. Adamson,  B. Austin,  J. Baker,  G. J. O. Beran,  K. Brandhorst,  
 S. T. Brown,  E. F. C. Byrd,  A. K. Chakraborty,  C.-L. Cheng,  
 Siu Hung Chien,  D. M. Chipman,  D. L. Crittenden,  H. Dachsel,  
 R. J. Doerksen,  A. D. Dutoi,  L. Fusti-Molnar,  W. A. Goddard III,  
 A. Golubeva-Zadorozhnaya,  S. R. Gwaltney,  G. Hawkins,  A. Heyden,  
 S. Hirata,  G. Kedziora,  F. J. Keil,  C. Kelley,  Jihan Kim,  R. A. King,  
 R. Z. Khaliullin,  P. P. Korambath,  W. Kurlancheek,  A. M. Lee,  M. S. Lee,  
 S. V. Levchenko,  Ching Yeh Lin,  D. Liotard,  R. C. Lochan,  I. Lotan,  
 P. E. Maslen,  N. Nair,  D. P. O'Neill,  D. Neuhauser,  E. Neuscamman,  
 C. M. Oana,  R. Olson,  B. Peters,  R. Peverati,  P. A. Pieniazek,  
 Y. M. Rhee,  J. Ritchie,  M. A. Rohrdanz,  E. Rosta,  N. J. Russ,  
 H. F. Schaefer III,  N. E. Schultz,  N. Shenvi,  A. C. Simmonett,  A. Sodt,  
 D. Stuck,  K. S. Thanthiriwatte,  V. Vanovschi,  Tao Wang,  A. Warshel,  
 C. F. Williams,  Q. Wu,  X. Xu,  W. Zhang

 Please cite Q-Chem as follows:
 Y. Shao et al., Mol. Phys. 113, 184-215 (2015)
 DOI: 10.1080/00268976.2014.952696

 Q-Chem 5.1.0 for Intel X86 EM64T Linux

 Parts of Q-Chem use Armadillo 8.300.2 (Tropical Shenanigans).
 http://arma.sourceforge.net/

 Q-Chem begins on Wed Feb 20 10:07:16 2019  

Host: cori01
0

     Scratch files written to /tmp/qchem12469//
 Jun2518 |scratch|qcdevops|jenkins|workspace|build_RNUM -1
Processing $rem in /global/common/cori/software/qchem/5.1/config/preferences.
 MEM_TOTAL  96000 

Checking the input file for inconsistencies... 	...done.

--------------------------------------------------------------
User input:
--------------------------------------------------------------
$molecule
0 1
C  -0.1767537504  -1.6084990375  -0.2613563693
C  -1.2832114783  -0.9778292468   0.2929885819
C  -0.6869348897   1.1545458375   0.9264125699
C  -0.0835934881   1.6147511886  -0.2337573792
C   1.0353237536   0.9697420387  -0.8076459792
C   1.6028914697  -0.1644963968  -0.2463787648
H  -0.0907465044  -1.7109610357  -1.3406544056
H   0.3901504016  -2.3308230958   0.3255462865
H  -1.5858368345  -1.2031225281   1.3151888147
H  -2.0638493137  -0.5788036147  -0.3506992999
H  -0.1072410231   0.6447835352   1.6922021934
H  -1.6227883716   1.5942813266   1.2721736630
H  -0.6139415056   2.3521914164  -0.8406309888
H   1.3091772166   1.2399807501  -1.8299910724
H   1.5870538198  -0.3191772622   0.8300362099
H   2.3823204980  -0.7100128756  -0.7789120600
$end

$rem
JOBTYPE                   FREQ
METHOD                    wB97X-D3
BASIS                     def2-TZVP
UNRESTRICTED              TRUE
SCF_ALGORITHM             DIIS
MAX_SCF_CYCLES            100
SCF_CONVERGENCE           8
SYM_IGNORE                TRUE
SYMMETRY                  FALSE
WAVEFUNCTION_ANALYSIS     FALSE
$end

--------------------------------------------------------------
 Adding empirical dispersion correction 
 ----------------------------------------------------------------
 Doing -D3(0) with
 s6  =   1.00000
 s8  =   1.00000
 rs6 =   1.28100
 rs8 =   1.09400
 -D3 energy without 3body term =     -0.0046964569 hartrees
 ----------------------------------------------------------------
             Standard Nuclear Orientation (Angstroms)
    I     Atom           X                Y                Z
 ----------------------------------------------------------------
    1      C      -0.1767537504    -1.6084990375    -0.2613563693
    2      C      -1.2832114783    -0.9778292468     0.2929885819
    3      C      -0.6869348897     1.1545458375     0.9264125699
    4      C      -0.0835934881     1.6147511886    -0.2337573792
    5      C       1.0353237536     0.9697420387    -0.8076459792
    6      C       1.6028914697    -0.1644963968    -0.2463787648
    7      H      -0.0907465044    -1.7109610357    -1.3406544056
    8      H       0.3901504016    -2.3308230958     0.3255462865
    9      H      -1.5858368345    -1.2031225281     1.3151888147
   10      H      -2.0638493137    -0.5788036147    -0.3506992999
   11      H      -0.1072410231     0.6447835352     1.6922021934
   12      H      -1.6227883716     1.5942813266     1.2721736630
   13      H      -0.6139415056     2.3521914164    -0.8406309888
   14      H       1.3091772166     1.2399807501    -1.8299910724
   15      H       1.5870538198    -0.3191772622     0.8300362099
   16      H       2.3823204980    -0.7100128756    -0.7789120600
 ----------------------------------------------------------------
 Nuclear Repulsion Energy =   223.1414532210 hartrees
 There are       23 alpha and       23 beta electrons
 Requested basis set is def2-TZVP
 There are 106 shells and 246 basis functions

 Total QAlloc Memory Limit  96000 MB
 Mega-Array Size       188 MB
 MEM_STATIC part       192 MB
 A cutoff of  1.0D-11 yielded   5399 shell pairs
 There are     29895 function pairs (     37860 Cartesian)
 
 -------------------------------------------------------
 OpenMP Integral Computing Module                       
 Release: version 1.0, May 2013, Q-Chem Inc. Pittsburgh 
 -------------------------------------------------------
 Integral Job Info:
 Integral job number is                      11
 Integral operator is                         1
 short-range coefficients              19572800
 long-range coefficients              100000000
 Omega coefficients                         250
 if combine SR and LR in K                    1
 Integral screening is                        0
 Integral computing path is                   2
 max size of driver memory is            800000
 size of driver memory is                776718
 size of scratch memory is              4473992
 max col of scratch BK array              10000
 max len of scratch array in speh3          662
 max len of scratch index in speh4           32
 max int batch size is                      520
 min int batch size is                       52
 fixed nKL is                                52
 max L of basis functions is                  3
 order of int derivative is                   0
 number of shells is                        106
 number of basis is                         276
 number of cartesian basis is               276
 number of contracted shell pairs          5399
 number of primitive shell pairs          12067
 maxK2 (contraction) of shell pair           36
 max number of K2 of shell pair               1
 max number of CS2 of shell pair            876
 max number of PS2 of shell pair           1548
 mem total for path MDJ                  587568
 -------------------------------------------------------
 Smallest overlap matrix eigenvalue = 7.42E-05
 Guess from superposition of atomic densities
 Warning:  Energy on first SCF cycle will be non-variational
 SAD guess density has 46.000000 electrons

 -----------------------------------------------------------------------
  General SCF calculation program by
  Eric Jon Sundstrom, Paul Horn, Yuezhi Mao, Dmitri Zuev, Alec White,
  David Stuck, Shaama M.S., Shane Yost, Joonho Lee, David Small,
  Daniel Levine, Susi Lehtola, Hugh Burton, Evgeny Epifanovsky
 -----------------------------------------------------------------------
 Exchange:     0.1957 Hartree-Fock + 1.0000 wB97X-D3 + LR-HF
 Correlation:  1.0000 wB97X-D3
 Using SG-2 standard quadrature grid
 Dispersion:   Grimme D3
 using 16 threads for integral computing
 -------------------------------------------------------
 OpenMP Integral computing Module                
 Release: version 1.0, May 2013, Q-Chem Inc. Pittsburgh 
 -------------------------------------------------------
 using 16 threads for integral computing
 -------------------------------------------------------
 OpenMP Integral computing Module                
 Release: version 1.0, May 2013, Q-Chem Inc. Pittsburgh 
 -------------------------------------------------------
 -------------------------------------------------------
 OpenMP BLAS3 based DFT computing Module                
 Release: version 1.0, May 2013, Q-Chem Inc. Pittsburgh 
 -------------------------------------------------------
 A unrestricted SCF calculation will be
 performed using DIIS
 SCF converges when DIIS error is below 1.0e-08
 ---------------------------------------
  Cycle       Energy         DIIS error
 ---------------------------------------
    1    -235.7846912902      1.62e-02  
    2    -234.4928186539      1.29e-03  
    3    -234.5242918577      8.92e-04  
    4    -234.5481992150      8.57e-05  
    5    -234.5485008903      3.40e-05  
    6    -234.5485398727      1.18e-05  
    7    -234.5485467033      4.21e-06  
    8    -234.5485490981      1.54e-06  
    9    -234.5485496240      9.30e-07  
   10    -234.5485497377      2.27e-07  
   11    -234.5485497466      5.85e-08  
   12    -234.5485497470      1.08e-08  
   13    -234.5485497470      4.04e-09  Convergence criterion met
 ---------------------------------------
 SCF time:   CPU 658.32s  wall 43.00s 
<S^2> =          0.000000000
 SCF   energy in the final basis set =     -234.5485497470
 Total energy in the final basis set =     -234.5485497470
 No wavefunction analysis requested
 Calculating MO derivatives via CPSCF
 D1JvT checksum  = 2343360 53632.4165291103
 D1KAT checksum  = 4753152 4787.9559771298
 D1JvT checksum  = 2343360 37277.4611225972
 D1KAT checksum  = 4753152 2218.3278920463
   1         3          48      0.266755    0.031210
   2         3          48      0.046506    0.007415
   3         3          48      0.006894    0.000845
   4         3          48      0.000884    0.000107
   5        26          25      0.000081    0.000011
   6        49           2      0.000002    0.000001
   7        51           0      0.000000    0.000000    Roots Converged
 Time for AOints: 465.0 s (CPU) 31.0 s (wall)
 ------------------------------------------------------------------------------
                     AOints        : Timing summary (seconds)
 ------------------------------------------------------------------------------
     job step          cpu (% of tot)      sys (% of tot)     wall (% of tot)
 ------------------------------------------------------------------------------
  cpscf_lag         0.3335E+04 (41.2)   0.7134E-02 (65.7)   0.8554E+03 (43.3)
  iterzp            0.4298E+04 (53.1)   0.3311E-02 (30.5)   0.1089E+04 (55.1)
  make_fx           0.0000E+00 ( 0.0)   0.0000E+00 ( 0.0)   0.0000E+00 ( 0.0)
  AOints            0.4650E+03 ( 5.7)   0.4060E-03 ( 3.7)   0.3103E+02 ( 1.6)
 ------------------------------------------------------------------------------
   Grand Totals     0.8098E+04          0.1086E-01          0.1976E+04
 ------------------------------------------------------------------------------
 Calculating analytic Hessian of the SCF energy
 Polarizability Matrix (a.u.)
            1           2           3
    1 -84.1990077   0.2636726  12.7629743
    2   0.2636726 -91.6251689   1.2863885
    3  12.7629743   1.2863885 -67.3546141
 Running MAKENN_D3_FD2ND
 
 Direct stationary perturbation theory relativistic correction:
 
 rels  =       0.053109057415
 relv  =      -0.253994781610
 rel2e =       0.000000000000
 E_rel =      -0.200885724195
 
 Hessian of the SCF Energy
            1           2           3           4           5           6
    1   0.3735139  -0.2884565  -0.0287380  -0.2586298   0.0564669   0.0630909
    2  -0.2884565   0.3653515  -0.0154982   0.1466373  -0.1435515  -0.0538307
    3  -0.0287380  -0.0154982   0.6431022   0.0962424  -0.0272388  -0.1503490
    4  -0.2586298   0.1466373   0.0962424   0.5840136  -0.1899300  -0.0530909
    5   0.0564669  -0.1435515  -0.0272388  -0.1899300   0.1840782  -0.1140393
    6   0.0630909  -0.0538307  -0.1503490  -0.0530909  -0.1140393   0.6124904
    7   0.0302279   0.0049634  -0.0068660  -0.0217560   0.0311381   0.0125076
    8   0.0646360   0.0001272  -0.0185966  -0.0154955   0.0759638   0.0315053
    9  -0.0159668  -0.0031372   0.0008395   0.0037101  -0.0120483  -0.0154245
   10  -0.0483473  -0.0094242   0.0130898   0.0098399  -0.0548074  -0.0191382
   11   0.0084214  -0.0017131   0.0010524  -0.0023694  -0.0076926   0.0008319
   12   0.0506633   0.0073024  -0.0105711  -0.0142548   0.0524809   0.0202889
   13   0.0461639   0.0080397  -0.0113402  -0.0152729   0.0433659   0.0240019
   14  -0.0627115  -0.0222819   0.0162135   0.0142552  -0.0463127  -0.0177758
   15   0.0034626  -0.0001656  -0.0019891   0.0001813  -0.0008262   0.0007734
   16   0.0350481   0.0174009  -0.0099783  -0.0168804   0.0227861   0.0119735
   17   0.0809801   0.0113685  -0.0206891  -0.0248544   0.0561241   0.0294329
   18  -0.0195434  -0.0088198  -0.0073220   0.0067392  -0.0115033  -0.0081647
   19  -0.0379538   0.0157357   0.0147512  -0.0022240   0.0051062   0.0282072
   20   0.0241568  -0.0447801  -0.0249985  -0.0018856   0.0087408  -0.0116706
   21   0.0214670  -0.0227394  -0.3348619  -0.0005236   0.0011135  -0.0080201
   22  -0.1068590   0.1049582  -0.0756739  -0.0137695   0.0204377  -0.0126058
   23   0.1161731  -0.1617339   0.0990782   0.0027278   0.0004328   0.0118923
   24  -0.0757343   0.1017906  -0.1421055   0.0076392  -0.0073773   0.0108056
   25   0.0021044  -0.0049093   0.0230515  -0.0747636  -0.0016620   0.0719417
   26   0.0121038   0.0045909  -0.0176560  -0.0109192  -0.0393613   0.0692624
   27   0.0037385   0.0030816  -0.0090330   0.0699035   0.0628147  -0.2972724
   28  -0.0091413   0.0103046  -0.0171627  -0.1956824   0.0859275  -0.1147902
   29   0.0168276  -0.0027958   0.0065718   0.0765297  -0.0625996   0.0699643
   30   0.0114469  -0.0063858   0.0103842  -0.1201070   0.0701180  -0.1578527
   31  -0.0038198   0.0000212   0.0013399  -0.0008329  -0.0056024  -0.0045181
   32  -0.0086984  -0.0009058   0.0010712  -0.0028125  -0.0146265  -0.0095866
   33  -0.0045022  -0.0007171   0.0010261  -0.0004499  -0.0066243  -0.0044680
   34  -0.0014213  -0.0005953   0.0002119   0.0026587  -0.0022207  -0.0013098
   35  -0.0008586  -0.0006706  -0.0001031   0.0041577  -0.0012435  -0.0007502
   36  -0.0014087  -0.0004636   0.0000741   0.0019556  -0.0019356  -0.0007571
   37  -0.0021653  -0.0002035   0.0006012   0.0006741  -0.0020666  -0.0010680
   38  -0.0019127   0.0002352   0.0004472   0.0006153  -0.0016030  -0.0006370
   39  -0.0004134   0.0000365   0.0001570   0.0002947  -0.0004851  -0.0004898
   40  -0.0012128  -0.0000532   0.0003038   0.0006577  -0.0008058  -0.0006276
   41  -0.0025374  -0.0004646   0.0006616   0.0010852  -0.0021237  -0.0011953
   42  -0.0014100  -0.0000538   0.0001184   0.0003222  -0.0009581  -0.0003312
   43  -0.0148300  -0.0063668  -0.0022824   0.0021285  -0.0068746  -0.0039949
   44  -0.0115859  -0.0048695  -0.0025099   0.0023920  -0.0050204  -0.0030516
   45  -0.0033744  -0.0005105  -0.0005136   0.0011973  -0.0020276  -0.0005687
   46  -0.0026778   0.0019478   0.0024499  -0.0001612  -0.0012588  -0.0005794
   47  -0.0030048   0.0020936   0.0021941  -0.0001334  -0.0012048  -0.0003520
   48  -0.0027781   0.0001106   0.0010436   0.0002407  -0.0014631  -0.0006600
            7           8           9          10          11          12
    1   0.0302279   0.0646360  -0.0159668  -0.0483473   0.0084214   0.0506633
    2   0.0049634   0.0001272  -0.0031372  -0.0094242  -0.0017131   0.0073024
    3  -0.0068660  -0.0185966   0.0008395   0.0130898   0.0010524  -0.0105711
    4  -0.0217560  -0.0154955   0.0037101   0.0098399  -0.0023694  -0.0142548
    5   0.0311381   0.0759638  -0.0120483  -0.0548074  -0.0076926   0.0524809
    6   0.0125076   0.0315053  -0.0154245  -0.0191382   0.0008319   0.0202889
    7   0.5573086  -0.1946119  -0.1044379  -0.1308374  -0.0241476   0.0944242
    8  -0.1946119   0.2397644  -0.1619436   0.0258754  -0.1115985   0.0549633
    9  -0.1044379  -0.1619436   0.6151286   0.0945303   0.1080702  -0.2990455
   10  -0.1308374   0.0258754   0.0945303   0.4907550  -0.1902440  -0.1156105
   11  -0.0241476  -0.1115985   0.1080702  -0.1902440   0.4312223  -0.1856039
   12   0.0944242   0.0549633  -0.2990455  -0.1156105  -0.1856039   0.5614927
   13  -0.0373761  -0.0419217   0.0388112  -0.2024951   0.0983929   0.0331206
   14   0.0165676   0.0476713  -0.0202039   0.0747463  -0.1246640   0.0123896
   15   0.0295462  -0.0090024  -0.0099803   0.0961423  -0.0361848  -0.1457093
   16  -0.0119961  -0.0152477   0.0019634  -0.0011393   0.0206022  -0.0178675
   17  -0.0235412  -0.0498543   0.0188448   0.0637673  -0.0273774  -0.0467667
   18   0.0104040   0.0096162  -0.0079524  -0.0094047  -0.0050020   0.0294677
   19  -0.0019249  -0.0033712   0.0011417   0.0030459  -0.0005262  -0.0025773
   20  -0.0015832  -0.0052714   0.0009244   0.0040311  -0.0004304  -0.0034085
   21  -0.0000104   0.0003347   0.0002046   0.0002853  -0.0003836  -0.0002957
   22  -0.0024367  -0.0039962   0.0010995   0.0029629  -0.0015548  -0.0033208
   23  -0.0018796  -0.0042053   0.0011157   0.0031095  -0.0013533  -0.0034315
   24  -0.0002393  -0.0021011   0.0002665   0.0012775  -0.0001371  -0.0013533
   25  -0.0023857  -0.0059006   0.0025301   0.0017027  -0.0004376  -0.0026127
   26  -0.0049660  -0.0101016   0.0049256   0.0033232  -0.0002781  -0.0043554
   27  -0.0030089  -0.0041626   0.0011736   0.0017419  -0.0003538  -0.0014374
   28  -0.0031598  -0.0046552  -0.0010424   0.0023801  -0.0002657  -0.0023554
   29  -0.0096524  -0.0108084  -0.0031690   0.0041084  -0.0003472  -0.0065234
   30  -0.0011106  -0.0005063  -0.0011603   0.0016171   0.0008050   0.0004329
   31  -0.1320913   0.0857198  -0.1046504   0.0096829  -0.0074142   0.0123806
   32   0.0836963  -0.0891091   0.0926106  -0.0013635  -0.0041891   0.0167933
   33  -0.0984667   0.1052979  -0.1911247  -0.0188610   0.0128710  -0.0086412
   34  -0.2551501   0.1033792   0.0752876  -0.0083244   0.0077812   0.0010883
   35   0.1088809  -0.0888494  -0.0300423  -0.0124640   0.0090736   0.0051518
   36   0.0759658  -0.0247729  -0.0802584   0.0210606  -0.0127702  -0.0038075
   37   0.0112167  -0.0067028   0.0092913  -0.1193925   0.0944182  -0.0644860
   38   0.0076365  -0.0008253   0.0043063   0.0906328  -0.1665417   0.1063562
   39  -0.0139388   0.0182398  -0.0136990  -0.0666580   0.1085833  -0.1332966
   40  -0.0009334   0.0054620   0.0015983  -0.0053543  -0.0059472   0.0242032
   41   0.0054448   0.0025518   0.0002157   0.0021607   0.0075672  -0.0138417
   42   0.0033013  -0.0004214   0.0010957  -0.0003204   0.0056711  -0.0088009
   43   0.0021175   0.0061251  -0.0031861  -0.0072632  -0.0012514   0.0047671
   44   0.0033355   0.0039740  -0.0008242  -0.0063067  -0.0007938   0.0021046
   45   0.0016477   0.0003902   0.0009860   0.0006117  -0.0009291   0.0000918
   46  -0.0008230   0.0007053  -0.0006795   0.0027842   0.0045421   0.0024377
   47  -0.0012812   0.0005708   0.0003552   0.0028549  -0.0008840   0.0063893
   48   0.0002818   0.0011593  -0.0010495  -0.0003639   0.0034796   0.0011845
           13          14          15          16          17          18
    1   0.0461639  -0.0627115   0.0034626   0.0350481   0.0809801  -0.0195434
    2   0.0080397  -0.0222819  -0.0001656   0.0174009   0.0113685  -0.0088198
    3  -0.0113402   0.0162135  -0.0019891  -0.0099783  -0.0206891  -0.0073220
    4  -0.0152729   0.0142552   0.0001813  -0.0168804  -0.0248544   0.0067392
    5   0.0433659  -0.0463127  -0.0008262   0.0227861   0.0561241  -0.0115033
    6   0.0240019  -0.0177758   0.0007734   0.0119735   0.0294329  -0.0081647
    7  -0.0373761   0.0165676   0.0295462  -0.0119961  -0.0235412   0.0104040
    8  -0.0419217   0.0476713  -0.0090024  -0.0152477  -0.0498543   0.0096162
    9   0.0388112  -0.0202039  -0.0099803   0.0019634   0.0188448  -0.0079524
   10  -0.2024951   0.0747463   0.0961423  -0.0011393   0.0637673  -0.0094047
   11   0.0983929  -0.1246640  -0.0361848   0.0206022  -0.0273774  -0.0050020
   12   0.0331206   0.0123896  -0.1457093  -0.0178675  -0.0467667   0.0294677
   13   0.4265222  -0.1982669  -0.1344140  -0.1476999   0.0762550  -0.0230040
   14  -0.1982669   0.4614209  -0.1508796   0.1445032  -0.2303868   0.0939857
   15  -0.1344140  -0.1508796   0.6002183  -0.0428228   0.1122867  -0.1643059
   16  -0.1476999   0.1445032  -0.0428228   0.3723334  -0.2979016  -0.0636116
   17   0.0762550  -0.2303868   0.1122867  -0.2979016   0.4150548  -0.0755106
   18  -0.0230040   0.0939857  -0.1643059  -0.0636116  -0.0755106   0.6246609
   19  -0.0031617   0.0041398  -0.0005295  -0.0051129  -0.0083431  -0.0037177
   20  -0.0051203   0.0042976  -0.0013567  -0.0064722  -0.0105077  -0.0028445
   21   0.0008458   0.0006899   0.0013226   0.0000860   0.0010410   0.0000552
   22  -0.0031500   0.0032350  -0.0001879  -0.0024830  -0.0098493   0.0025076
   23  -0.0033927   0.0030360  -0.0008725  -0.0025879  -0.0092798   0.0039432
   24  -0.0012363   0.0009095   0.0001471  -0.0012478  -0.0031994   0.0003553
   25  -0.0026617   0.0021863   0.0000536  -0.0017968  -0.0028610   0.0011548
   26  -0.0048406   0.0029438   0.0003061  -0.0018159  -0.0053343   0.0008392
   27  -0.0020228   0.0015088   0.0000667  -0.0012368  -0.0024180   0.0005715
   28  -0.0020909   0.0020785   0.0003221  -0.0014510  -0.0021745   0.0009211
   29  -0.0037351   0.0042216   0.0005515  -0.0025779  -0.0053267   0.0014605
   30  -0.0008372   0.0004340   0.0001887   0.0005056  -0.0006414  -0.0000622
   31   0.0001913  -0.0023329  -0.0010084   0.0011630   0.0025889   0.0017840
   32   0.0045104  -0.0088453  -0.0023619   0.0018956   0.0071497  -0.0025932
   33   0.0012747  -0.0030121   0.0006687   0.0009589   0.0030645  -0.0008573
   34   0.0031129  -0.0006785   0.0037736   0.0006772   0.0002583  -0.0008737
   35   0.0033416   0.0017695   0.0053236   0.0007279  -0.0008770  -0.0010128
   36   0.0039220   0.0036425  -0.0017158  -0.0001116   0.0011261  -0.0011563
   37  -0.0070033   0.0162961  -0.0167616  -0.0011637   0.0044610   0.0042972
   38   0.0071433  -0.0076085   0.0076313   0.0042745   0.0038082  -0.0006634
   39   0.0084856  -0.0103282   0.0080981   0.0028543   0.0003834   0.0000191
   40  -0.0625133  -0.0077743   0.0662783   0.0056839   0.0059415  -0.0142035
   41  -0.0057750  -0.0712390   0.0635268  -0.0039295   0.0005776   0.0254733
   42   0.0706877   0.0649933  -0.2877537   0.0040782   0.0029834  -0.0094493
   43   0.0111505  -0.0084357  -0.0103526  -0.0401277   0.0235610   0.0048109
   44   0.0019523  -0.0059215   0.0278821   0.0141032  -0.0419850   0.0350877
   45   0.0025656   0.0004593  -0.0086951   0.0113563   0.0442276  -0.3302430
   46  -0.0037159   0.0021919   0.0063169  -0.1850545   0.1117121   0.1017397
   47   0.0200514  -0.0081009  -0.0158584   0.1042393  -0.1131538  -0.0624563
   48  -0.0108604   0.0069733   0.0086656   0.1031002  -0.0641654  -0.1256164
           19          20          21          22          23          24
    1  -0.0379538   0.0241568   0.0214670  -0.1068590   0.1161731  -0.0757343
    2   0.0157357  -0.0447801  -0.0227394   0.1049582  -0.1617339   0.1017906
    3   0.0147512  -0.0249985  -0.3348619  -0.0756739   0.0990782  -0.1421055
    4  -0.0022240  -0.0018856  -0.0005236  -0.0137695   0.0027278   0.0076392
    5   0.0051062   0.0087408   0.0011135   0.0204377   0.0004328  -0.0073773
    6   0.0282072  -0.0116706  -0.0080201  -0.0126058   0.0118923   0.0108056
    7  -0.0019249  -0.0015832  -0.0000104  -0.0024367  -0.0018796  -0.0002393
    8  -0.0033712  -0.0052714   0.0003347  -0.0039962  -0.0042053  -0.0021011
    9   0.0011417   0.0009244   0.0002046   0.0010995   0.0011157   0.0002665
   10   0.0030459   0.0040311   0.0002853   0.0029629   0.0031095   0.0012775
   11  -0.0005262  -0.0004304  -0.0003836  -0.0015548  -0.0013533  -0.0001371
   12  -0.0025773  -0.0034085  -0.0002957  -0.0033208  -0.0034315  -0.0013533
   13  -0.0031617  -0.0051203   0.0008458  -0.0031500  -0.0033927  -0.0012363
   14   0.0041398   0.0042976   0.0006899   0.0032350   0.0030360   0.0009095
   15  -0.0005295  -0.0013567   0.0013226  -0.0001879  -0.0008725   0.0001471
   16  -0.0051129  -0.0064722   0.0000860  -0.0024830  -0.0025879  -0.0012478
   17  -0.0083431  -0.0105077   0.0010410  -0.0098493  -0.0092798  -0.0031994
   18  -0.0037177  -0.0028445   0.0000552   0.0025076   0.0039432   0.0003553
   19   0.0472592  -0.0135100  -0.0257286   0.0014261  -0.0024264  -0.0143321
   20  -0.0135100   0.0425625   0.0237975  -0.0021554   0.0041362   0.0190851
   21  -0.0257286   0.0237975   0.3502643   0.0024686  -0.0027049  -0.0110548
   22   0.0014261  -0.0021554   0.0024686   0.1248118  -0.1136341   0.0819793
   23  -0.0024264   0.0041362  -0.0027049  -0.1136341   0.1673285  -0.1076248
   24  -0.0143321   0.0190851  -0.0110548   0.0819793  -0.1076248   0.1410401
   25  -0.0011744   0.0038416   0.0015139  -0.0008303  -0.0023633  -0.0008693
   26   0.0062829   0.0034315  -0.0008749  -0.0042569  -0.0032064  -0.0007532
   27   0.0028266   0.0002283   0.0007229  -0.0010263  -0.0016165   0.0009970
   28  -0.0005052  -0.0024442   0.0000580  -0.0009873   0.0031745   0.0024160
   29  -0.0039381  -0.0035230  -0.0004428   0.0059696   0.0039814  -0.0006425
   30  -0.0009750  -0.0006555   0.0012725   0.0032834  -0.0003274   0.0000245
   31   0.0001829   0.0003894   0.0000538   0.0002749   0.0002812   0.0000513
   32   0.0004616   0.0007400   0.0001795   0.0004505   0.0002338   0.0002005
   33   0.0002214   0.0003246   0.0000591   0.0001692   0.0001386   0.0000580
   34   0.0001803   0.0000069  -0.0000218   0.0001465   0.0000011  -0.0000569
   35   0.0000545  -0.0001512   0.0000042   0.0000894   0.0000194  -0.0001035
   36   0.0001594   0.0000303   0.0000369   0.0000511  -0.0000008  -0.0000592
   37   0.0001020   0.0001728  -0.0000298   0.0001399   0.0001389   0.0000975
   38   0.0001389   0.0000671   0.0000163   0.0001994   0.0002370   0.0000163
   39   0.0000040   0.0000069   0.0000124   0.0000681   0.0000449  -0.0000078
   40   0.0000747   0.0000125  -0.0000976   0.0001395   0.0000243   0.0001095
   41  -0.0000174   0.0001215  -0.0001348   0.0002699   0.0002794   0.0000917
   42   0.0001215   0.0002296  -0.0000511   0.0001934   0.0001017   0.0001712
   43  -0.0000949   0.0001430   0.0000377   0.0006321   0.0007289  -0.0001678
   44   0.0000249  -0.0000363   0.0001653  -0.0003630  -0.0000422  -0.0005033
   45   0.0003000   0.0000457   0.0002157   0.0006835  -0.0000306   0.0008744
   46  -0.0001190   0.0004168  -0.0004045  -0.0000179  -0.0000755   0.0003133
   47   0.0001878   0.0006028  -0.0000615   0.0001999   0.0001364   0.0003486
   48   0.0001273   0.0002617   0.0001174   0.0003110   0.0002946  -0.0001591
           25          26          27          28          29          30
    1   0.0021044   0.0121038   0.0037385  -0.0091413   0.0168276   0.0114469
    2  -0.0049093   0.0045909   0.0030816   0.0103046  -0.0027958  -0.0063858
    3   0.0230515  -0.0176560  -0.0090330  -0.0171627   0.0065718   0.0103842
    4  -0.0747636  -0.0109192   0.0699035  -0.1956824   0.0765297  -0.1201070
    5  -0.0016620  -0.0393613   0.0628147   0.0859275  -0.0625996   0.0701180
    6   0.0719417   0.0692624  -0.2972724  -0.1147902   0.0699643  -0.1578527
    7  -0.0023857  -0.0049660  -0.0030089  -0.0031598  -0.0096524  -0.0011106
    8  -0.0059006  -0.0101016  -0.0041626  -0.0046552  -0.0108084  -0.0005063
    9   0.0025301   0.0049256   0.0011736  -0.0010424  -0.0031690  -0.0011603
   10   0.0017027   0.0033232   0.0017419   0.0023801   0.0041084   0.0016171
   11  -0.0004376  -0.0002781  -0.0003538  -0.0002657  -0.0003472   0.0008050
   12  -0.0026127  -0.0043554  -0.0014374  -0.0023554  -0.0065234   0.0004329
   13  -0.0026617  -0.0048406  -0.0020228  -0.0020909  -0.0037351  -0.0008372
   14   0.0021863   0.0029438   0.0015088   0.0020785   0.0042216   0.0004340
   15   0.0000536   0.0003061   0.0000667   0.0003221   0.0005515   0.0001887
   16  -0.0017968  -0.0018159  -0.0012368  -0.0014510  -0.0025779   0.0005056
   17  -0.0028610  -0.0053343  -0.0024180  -0.0021745  -0.0053267  -0.0006414
   18   0.0011548   0.0008392   0.0005715   0.0009211   0.0014605  -0.0000622
   19  -0.0011744   0.0062829   0.0028266  -0.0005052  -0.0039381  -0.0009750
   20   0.0038416   0.0034315   0.0002283  -0.0024442  -0.0035230  -0.0006555
   21   0.0015139  -0.0008749   0.0007229   0.0000580  -0.0004428   0.0012725
   22  -0.0008303  -0.0042569  -0.0010263  -0.0009873   0.0059696   0.0032834
   23  -0.0023633  -0.0032064  -0.0016165   0.0031745   0.0039814  -0.0003274
   24  -0.0008693  -0.0007532   0.0009970   0.0024160  -0.0006425   0.0000245
   25   0.0710394   0.0069800  -0.0780703   0.0082571   0.0045629  -0.0193482
   26   0.0069800   0.0475305  -0.0611808  -0.0030425  -0.0015681   0.0082197
   27  -0.0780703  -0.0611808   0.3150619   0.0062981   0.0019406  -0.0121022
   28   0.0082571  -0.0030425   0.0062981   0.2014993  -0.0894481   0.1249474
   29   0.0045629  -0.0015681   0.0019406  -0.0894481   0.0776311  -0.0705900
   30  -0.0193482   0.0082197  -0.0121022   0.1249474  -0.0705900   0.1589335
   31  -0.0000369  -0.0001906   0.0002495   0.0000624   0.0000521   0.0003297
   32  -0.0000529   0.0006113  -0.0006768   0.0001081  -0.0001107  -0.0001035
   33   0.0005143   0.0007628   0.0009123   0.0001359   0.0001266   0.0001065
   34   0.0001789   0.0004036   0.0001527   0.0003497   0.0004268   0.0000569
   35   0.0002561  -0.0002556   0.0003539   0.0001505   0.0004488  -0.0004560
   36   0.0000213   0.0001619   0.0000266   0.0000642   0.0001659  -0.0002418
   37   0.0002079   0.0003000   0.0001849   0.0000838   0.0001921  -0.0001243
   38   0.0000939   0.0001902   0.0001100  -0.0000861   0.0000239  -0.0000833
   39   0.0000447   0.0000122   0.0001834   0.0000200   0.0001774   0.0000160
   40   0.0000718   0.0002231   0.0000275   0.0000008   0.0000440   0.0000642
   41   0.0001662   0.0002483   0.0001010   0.0000609   0.0002079   0.0000277
   42   0.0000425   0.0000475   0.0000658   0.0000525   0.0000691  -0.0000357
   43   0.0001553   0.0003256   0.0002794   0.0004461   0.0006274   0.0001387
   44   0.0001841   0.0004150   0.0002394   0.0004199   0.0005287   0.0000670
   45   0.0000854   0.0001967   0.0000219   0.0001042   0.0001512  -0.0000056
   46  -0.0000679   0.0000895  -0.0000374  -0.0000616   0.0000109   0.0001123
   47  -0.0000844   0.0001440   0.0000302  -0.0001083   0.0000360   0.0000778
   48  -0.0000533   0.0000862   0.0000415   0.0000113   0.0001889   0.0001018
           31          32          33          34          35          36
    1  -0.0038198  -0.0086984  -0.0045022  -0.0014213  -0.0008586  -0.0014087
    2   0.0000212  -0.0009058  -0.0007171  -0.0005953  -0.0006706  -0.0004636
    3   0.0013399   0.0010712   0.0010261   0.0002119  -0.0001031   0.0000741
    4  -0.0008329  -0.0028125  -0.0004499   0.0026587   0.0041577   0.0019556
    5  -0.0056024  -0.0146265  -0.0066243  -0.0022207  -0.0012435  -0.0019356
    6  -0.0045181  -0.0095866  -0.0044680  -0.0013098  -0.0007502  -0.0007571
    7  -0.1320913   0.0836963  -0.0984667  -0.2551501   0.1088809   0.0759658
    8   0.0857198  -0.0891091   0.1052979   0.1033792  -0.0888494  -0.0247729
    9  -0.1046504   0.0926106  -0.1911247   0.0752876  -0.0300423  -0.0802584
   10   0.0096829  -0.0013635  -0.0188610  -0.0083244  -0.0124640   0.0210606
   11  -0.0074142  -0.0041891   0.0128710   0.0077812   0.0090736  -0.0127702
   12   0.0123806   0.0167933  -0.0086412   0.0010883   0.0051518  -0.0038075
   13   0.0001913   0.0045104   0.0012747   0.0031129   0.0033416   0.0039220
   14  -0.0023329  -0.0088453  -0.0030121  -0.0006785   0.0017695   0.0036425
   15  -0.0010084  -0.0023619   0.0006687   0.0037736   0.0053236  -0.0017158
   16   0.0011630   0.0018956   0.0009589   0.0006772   0.0007279  -0.0001116
   17   0.0025889   0.0071497   0.0030645   0.0002583  -0.0008770   0.0011261
   18   0.0017840  -0.0025932  -0.0008573  -0.0008737  -0.0010128  -0.0011563
   19   0.0001829   0.0004616   0.0002214   0.0001803   0.0000545   0.0001594
   20   0.0003894   0.0007400   0.0003246   0.0000069  -0.0001512   0.0000303
   21   0.0000538   0.0001795   0.0000591  -0.0000218   0.0000042   0.0000369
   22   0.0002749   0.0004505   0.0001692   0.0001465   0.0000894   0.0000511
   23   0.0002812   0.0002338   0.0001386   0.0000011   0.0000194  -0.0000008
   24   0.0000513   0.0002005   0.0000580  -0.0000569  -0.0001035  -0.0000592
   25  -0.0000369  -0.0000529   0.0005143   0.0001789   0.0002561   0.0000213
   26  -0.0001906   0.0006113   0.0007628   0.0004036  -0.0002556   0.0001619
   27   0.0002495  -0.0006768   0.0009123   0.0001527   0.0003539   0.0000266
   28   0.0000624   0.0001081   0.0001359   0.0003497   0.0001505   0.0000642
   29   0.0000521  -0.0001107   0.0001266   0.0004268   0.0004488   0.0001659
   30   0.0003297  -0.0001035   0.0001065   0.0000569  -0.0004560  -0.0002418
   31   0.1349424  -0.0847514   0.1080203  -0.0095907   0.0104154  -0.0171028
   32  -0.0847514   0.1085690  -0.1090796   0.0048856  -0.0033595   0.0086901
   33   0.1080203  -0.1090796   0.1947384   0.0063082  -0.0045501   0.0086271
   34  -0.0095907   0.0048856   0.0063082   0.2680147  -0.1115613  -0.0839456
   35   0.0104154  -0.0033595  -0.0045501  -0.1115613   0.0861459   0.0288581
   36  -0.0171028   0.0086901   0.0086271  -0.0839456   0.0288581   0.0792513
   37   0.0005697   0.0017260   0.0035694  -0.0004992  -0.0023061  -0.0015931
   38   0.0007235   0.0043110   0.0024498  -0.0023427  -0.0026698  -0.0018883
   39   0.0039158   0.0048215  -0.0018347  -0.0011233  -0.0027387  -0.0002595
   40  -0.0002177  -0.0000901   0.0000778  -0.0005514  -0.0006167   0.0008612
   41  -0.0004577  -0.0004163  -0.0001374   0.0005026   0.0004865  -0.0004625
   42  -0.0005136  -0.0001166   0.0000971   0.0003504   0.0004847  -0.0003909
   43  -0.0004013   0.0005623   0.0011158   0.0001191  -0.0005803   0.0000527
   44   0.0009360   0.0002345  -0.0006644  -0.0004025  -0.0003052  -0.0003232
   45  -0.0001332   0.0002322   0.0000510  -0.0000344  -0.0002236   0.0003914
   46  -0.0000788  -0.0005276  -0.0000859   0.0000991   0.0003130   0.0000481
   47  -0.0003783  -0.0002868  -0.0002508   0.0001557   0.0004383  -0.0000580
   48  -0.0001986  -0.0000807   0.0005816   0.0001361  -0.0001959   0.0002392
           37          38          39          40          41          42
    1  -0.0021653  -0.0019127  -0.0004134  -0.0012128  -0.0025374  -0.0014100
    2  -0.0002035   0.0002352   0.0000365  -0.0000532  -0.0004646  -0.0000538
    3   0.0006012   0.0004472   0.0001570   0.0003038   0.0006616   0.0001184
    4   0.0006741   0.0006153   0.0002947   0.0006577   0.0010852   0.0003222
    5  -0.0020666  -0.0016030  -0.0004851  -0.0008058  -0.0021237  -0.0009581
    6  -0.0010680  -0.0006370  -0.0004898  -0.0006276  -0.0011953  -0.0003312
    7   0.0112167   0.0076365  -0.0139388  -0.0009334   0.0054448   0.0033013
    8  -0.0067028  -0.0008253   0.0182398   0.0054620   0.0025518  -0.0004214
    9   0.0092913   0.0043063  -0.0136990   0.0015983   0.0002157   0.0010957
   10  -0.1193925   0.0906328  -0.0666580  -0.0053543   0.0021607  -0.0003204
   11   0.0944182  -0.1665417   0.1085833  -0.0059472   0.0075672   0.0056711
   12  -0.0644860   0.1063562  -0.1332966   0.0242032  -0.0138417  -0.0088009
   13  -0.0070033   0.0071433   0.0084856  -0.0625133  -0.0057750   0.0706877
   14   0.0162961  -0.0076085  -0.0103282  -0.0077743  -0.0712390   0.0649933
   15  -0.0167616   0.0076313   0.0080981   0.0662783   0.0635268  -0.2877537
   16  -0.0011637   0.0042745   0.0028543   0.0056839  -0.0039295   0.0040782
   17   0.0044610   0.0038082   0.0003834   0.0059415   0.0005776   0.0029834
   18   0.0042972  -0.0006634   0.0000191  -0.0142035   0.0254733  -0.0094493
   19   0.0001020   0.0001389   0.0000040   0.0000747  -0.0000174   0.0001215
   20   0.0001728   0.0000671   0.0000069   0.0000125   0.0001215   0.0002296
   21  -0.0000298   0.0000163   0.0000124  -0.0000976  -0.0001348  -0.0000511
   22   0.0001399   0.0001994   0.0000681   0.0001395   0.0002699   0.0001934
   23   0.0001389   0.0002370   0.0000449   0.0000243   0.0002794   0.0001017
   24   0.0000975   0.0000163  -0.0000078   0.0001095   0.0000917   0.0001712
   25   0.0002079   0.0000939   0.0000447   0.0000718   0.0001662   0.0000425
   26   0.0003000   0.0001902   0.0000122   0.0002231   0.0002483   0.0000475
   27   0.0001849   0.0001100   0.0001834   0.0000275   0.0001010   0.0000658
   28   0.0000838  -0.0000861   0.0000200   0.0000008   0.0000609   0.0000525
   29   0.0001921   0.0000239   0.0001774   0.0000440   0.0002079   0.0000691
   30  -0.0001243  -0.0000833   0.0000160   0.0000642   0.0000277  -0.0000357
   31   0.0005697   0.0007235   0.0039158  -0.0002177  -0.0004577  -0.0005136
   32   0.0017260   0.0043110   0.0048215  -0.0000901  -0.0004163  -0.0001166
   33   0.0035694   0.0024498  -0.0018347   0.0000778  -0.0001374   0.0000971
   34  -0.0004992  -0.0023427  -0.0011233  -0.0005514   0.0005026   0.0003504
   35  -0.0023061  -0.0026698  -0.0027387  -0.0006167   0.0004865   0.0004847
   36  -0.0015931  -0.0018883  -0.0002595   0.0008612  -0.0004625  -0.0003909
   37   0.1179836  -0.1053516   0.0671458  -0.0005103  -0.0017429  -0.0004526
   38  -0.1053516   0.1724472  -0.1170853  -0.0017406  -0.0012225  -0.0012021
   39   0.0671458  -0.1170853   0.1404410  -0.0011074  -0.0008534   0.0005400
   40  -0.0005103  -0.0017406  -0.0011074   0.0638131   0.0028276  -0.0758790
   41  -0.0017429  -0.0012225  -0.0008534   0.0028276   0.0658998  -0.0739975
   42  -0.0004526  -0.0012021   0.0005400  -0.0758790  -0.0739975   0.3035129
   43  -0.0001276  -0.0001611   0.0002077   0.0032331   0.0045851   0.0013703
   44  -0.0006224  -0.0002999  -0.0002778   0.0055820  -0.0010292   0.0034991
   45  -0.0002947  -0.0000893  -0.0000927  -0.0005508   0.0019774   0.0008006
   46  -0.0001158   0.0001370   0.0002000  -0.0023813  -0.0026431  -0.0019444
   47   0.0012907  -0.0005491  -0.0005374  -0.0030889  -0.0014446  -0.0013302
   48  -0.0003772   0.0003155   0.0002132  -0.0010579  -0.0014527   0.0004112
           43          44          45          46          47          48
    1  -0.0148300  -0.0115859  -0.0033744  -0.0026778  -0.0030048  -0.0027781
    2  -0.0063668  -0.0048695  -0.0005105   0.0019478   0.0020936   0.0001106
    3  -0.0022824  -0.0025099  -0.0005136   0.0024499   0.0021941   0.0010436
    4   0.0021285   0.0023920   0.0011973  -0.0001612  -0.0001334   0.0002407
    5  -0.0068746  -0.0050204  -0.0020276  -0.0012588  -0.0012048  -0.0014631
    6  -0.0039949  -0.0030516  -0.0005687  -0.0005794  -0.0003520  -0.0006600
    7   0.0021175   0.0033355   0.0016477  -0.0008230  -0.0012812   0.0002818
    8   0.0061251   0.0039740   0.0003902   0.0007053   0.0005708   0.0011593
    9  -0.0031861  -0.0008242   0.0009860  -0.0006795   0.0003552  -0.0010495
   10  -0.0072632  -0.0063067   0.0006117   0.0027842   0.0028549  -0.0003639
   11  -0.0012514  -0.0007938  -0.0009291   0.0045421  -0.0008840   0.0034796
   12   0.0047671   0.0021046   0.0000918   0.0024377   0.0063893   0.0011845
   13   0.0111505   0.0019523   0.0025656  -0.0037159   0.0200514  -0.0108604
   14  -0.0084357  -0.0059215   0.0004593   0.0021919  -0.0081009   0.0069733
   15  -0.0103526   0.0278821  -0.0086951   0.0063169  -0.0158584   0.0086656
   16  -0.0401277   0.0141032   0.0113563  -0.1850545   0.1042393   0.1031002
   17   0.0235610  -0.0419850   0.0442276   0.1117121  -0.1131538  -0.0641654
   18   0.0048109   0.0350877  -0.3302430   0.1017397  -0.0624563  -0.1256164
   19  -0.0000949   0.0000249   0.0003000  -0.0001190   0.0001878   0.0001273
   20   0.0001430  -0.0000363   0.0000457   0.0004168   0.0006028   0.0002617
   21   0.0000377   0.0001653   0.0002157  -0.0004045  -0.0000615   0.0001174
   22   0.0006321  -0.0003630   0.0006835  -0.0000179   0.0001999   0.0003110
   23   0.0007289  -0.0000422  -0.0000306  -0.0000755   0.0001364   0.0002946
   24  -0.0001678  -0.0005033   0.0008744   0.0003133   0.0003486  -0.0001591
   25   0.0001553   0.0001841   0.0000854  -0.0000679  -0.0000844  -0.0000533
   26   0.0003256   0.0004150   0.0001967   0.0000895   0.0001440   0.0000862
   27   0.0002794   0.0002394   0.0000219  -0.0000374   0.0000302   0.0000415
   28   0.0004461   0.0004199   0.0001042  -0.0000616  -0.0001083   0.0000113
   29   0.0006274   0.0005287   0.0001512   0.0000109   0.0000360   0.0001889
   30   0.0001387   0.0000670  -0.0000056   0.0001123   0.0000778   0.0001018
   31  -0.0004013   0.0009360  -0.0001332  -0.0000788  -0.0003783  -0.0001986
   32   0.0005623   0.0002345   0.0002322  -0.0005276  -0.0002868  -0.0000807
   33   0.0011158  -0.0006644   0.0000510  -0.0000859  -0.0002508   0.0005816
   34   0.0001191  -0.0004025  -0.0000344   0.0000991   0.0001557   0.0001361
   35  -0.0005803  -0.0003052  -0.0002236   0.0003130   0.0004383  -0.0001959
   36   0.0000527  -0.0003232   0.0003914   0.0000481  -0.0000580   0.0002392
   37  -0.0001276  -0.0006224  -0.0002947  -0.0001158   0.0012907  -0.0003772
   38  -0.0001611  -0.0002999  -0.0000893   0.0001370  -0.0005491   0.0003155
   39   0.0002077  -0.0002778  -0.0000927   0.0002000  -0.0005374   0.0002132
   40   0.0032331   0.0055820  -0.0005508  -0.0023813  -0.0030889  -0.0010579
   41   0.0045851  -0.0010292   0.0019774  -0.0026431  -0.0014446  -0.0014527
   42   0.0013703   0.0034991   0.0008006  -0.0019444  -0.0013302   0.0004112
   43   0.0407170  -0.0096856  -0.0131551   0.0021454  -0.0033029   0.0203588
   44  -0.0096856   0.0517683  -0.0470448   0.0000363   0.0033825  -0.0138461
   45  -0.0131551  -0.0470448   0.3466139  -0.0010090   0.0031751  -0.0099280
   46   0.0021454   0.0000363  -0.0010090   0.1902460  -0.1175976  -0.1088778
   47  -0.0033029   0.0033825   0.0031751  -0.1175976   0.1182198   0.0683343
   48   0.0203588  -0.0138461  -0.0099280  -0.1088778   0.0683343   0.1248135
 Gradient time:  CPU 9999.20 s  wall 2925.60 s
 **********************************************************************
 **                                                                  **
 **                       VIBRATIONAL ANALYSIS                       **
 **                       --------------------                       **
 **                                                                  **
 **        VIBRATIONAL FREQUENCIES (CM**-1) AND NORMAL MODES         **
 **     FORCE CONSTANTS (mDYN/ANGSTROM) AND REDUCED MASSES (AMU)     **
 **                  INFRARED INTENSITIES (KM/MOL)                   **
 **                                                                  **
 **********************************************************************
 

 Mode:                 1                      2                      3
 Frequency:      -566.56                 204.82                 235.78
 Force Cnst:      1.6241                 0.0672                 0.0964
 Red. Mass:       8.5878                 2.7195                 2.9424
 IR Active:          YES                    YES                    YES
 IR Intens:        8.426                  1.923                  0.802
 Raman Active:       YES                    YES                    YES
               X      Y      Z        X      Y      Z        X      Y      Z
 C          0.311  0.288  0.001    0.056  0.042 -0.184   -0.162  0.065 -0.095
 C          0.126  0.391  0.097    0.100 -0.134  0.104   -0.030  0.044  0.191
 C         -0.109 -0.372 -0.074   -0.027  0.187 -0.009   -0.044 -0.153 -0.101
 C          0.053 -0.043 -0.066    0.013  0.053 -0.033   -0.020 -0.087 -0.069
 C         -0.085  0.038  0.006   -0.013 -0.053  0.035    0.102  0.040  0.026
 C         -0.289 -0.272  0.019   -0.132 -0.095  0.089    0.163  0.087  0.042
 H         -0.079 -0.088  0.001   -0.136  0.218 -0.218   -0.303  0.281 -0.127
 H         -0.088 -0.066 -0.041    0.146 -0.075 -0.414   -0.059 -0.019 -0.302
 H         -0.044 -0.093 -0.057    0.352 -0.224  0.159    0.191 -0.060  0.237
 H         -0.044 -0.108 -0.012   -0.057 -0.104  0.316   -0.206  0.011  0.385
 H          0.105  0.156  0.127   -0.084  0.181  0.029    0.006 -0.001 -0.037
 H         -0.045 -0.247 -0.045   -0.035  0.223 -0.076   -0.093 -0.221 -0.146
 H          0.074  0.063  0.045    0.077  0.051 -0.091   -0.068 -0.166 -0.122
 H          0.059  0.076  0.056    0.039 -0.116  0.033    0.180  0.098  0.062
 H          0.171  0.124  0.091   -0.160 -0.042  0.097    0.017 -0.015  0.024
 H         -0.190 -0.156  0.036   -0.117 -0.130  0.146    0.232  0.144  0.084
 TransDip  -0.039 -0.083  0.017    0.035 -0.020 -0.018   -0.022  0.014  0.012

 Mode:                 4                      5                      6
 Frequency:       307.99                 381.22                 420.93
 Force Cnst:      0.1598                 0.2219                 0.2848
 Red. Mass:       2.8596                 2.5915                 2.7282
 IR Active:          YES                    YES                    YES
 IR Intens:        0.628                  0.107                  3.498
 Raman Active:       YES                    YES                    YES
               X      Y      Z        X      Y      Z        X      Y      Z
 C          0.011  0.100 -0.085   -0.034 -0.071  0.000    0.064  0.248  0.054
 C          0.018  0.099 -0.089   -0.034 -0.064  0.004   -0.198 -0.173  0.010
 C          0.118  0.030  0.125    0.196 -0.113 -0.054    0.012 -0.040 -0.027
 C         -0.113 -0.146 -0.051    0.015  0.085 -0.072    0.079  0.011  0.023
 C         -0.110 -0.148 -0.050    0.007  0.087 -0.059   -0.004 -0.054 -0.065
 C          0.067  0.054  0.149   -0.171  0.089  0.133    0.044  0.010  0.006
 H          0.089  0.216 -0.089   -0.038 -0.083  0.000    0.132  0.333  0.054
 H         -0.050  0.021 -0.123   -0.019 -0.058  0.004    0.157  0.296  0.021
 H         -0.046  0.027 -0.123   -0.023 -0.043  0.012   -0.183 -0.278 -0.007
 H          0.081  0.231 -0.082   -0.040 -0.070  0.007   -0.249 -0.282 -0.001
 H          0.233  0.082  0.075    0.375 -0.200 -0.250   -0.097 -0.266 -0.101
 H          0.149  0.019  0.218    0.277 -0.166  0.222    0.100  0.096  0.036
 H         -0.280 -0.329 -0.125   -0.017  0.165  0.057    0.162  0.143  0.112
 H         -0.240 -0.343 -0.136    0.166  0.063 -0.020   -0.133 -0.164 -0.130
 H          0.043  0.181  0.168   -0.399  0.213  0.145    0.226  0.206  0.041
 H          0.115  0.039  0.236   -0.044  0.032  0.382   -0.073 -0.117 -0.035
 TransDip   0.015  0.017  0.012    0.002  0.009 -0.005    0.048 -0.026 -0.024

 Mode:                 7                      8                      9
 Frequency:       501.11                 604.61                 629.14
 Force Cnst:      0.3498                 0.4364                 0.2507
 Red. Mass:       2.3643                 2.0262                 1.0749
 IR Active:          YES                    YES                    YES
 IR Intens:        0.007                  0.227                  1.863
 Raman Active:       YES                    YES                    YES
               X      Y      Z        X      Y      Z        X      Y      Z
 C         -0.040 -0.095 -0.042    0.003  0.006  0.004   -0.014  0.021 -0.042
 C          0.085  0.070  0.020   -0.004 -0.002 -0.003   -0.004  0.020 -0.044
 C         -0.083 -0.067 -0.065    0.044  0.002 -0.085    0.005 -0.002  0.012
 C          0.101  0.122  0.089   -0.103  0.141 -0.076   -0.001 -0.014  0.017
 C         -0.121 -0.113 -0.081   -0.076 -0.039  0.172    0.000 -0.016  0.015
 C          0.066  0.077  0.075    0.071 -0.068  0.024    0.003 -0.002  0.012
 H         -0.062 -0.053 -0.049    0.012  0.017  0.004   -0.198 -0.405 -0.022
 H         -0.042 -0.121 -0.070   -0.009 -0.007 -0.003    0.287  0.424  0.152
 H          0.119  0.075  0.030    0.010  0.018  0.006    0.326  0.396  0.131
 H          0.056  0.066  0.054   -0.010 -0.016 -0.004   -0.260 -0.387  0.004
 H         -0.240 -0.272 -0.091    0.335 -0.122 -0.393    0.006 -0.034 -0.010
 H         -0.027  0.049 -0.050    0.105 -0.168  0.285    0.016  0.003  0.035
 H          0.272  0.365  0.236    0.001  0.161 -0.137   -0.011 -0.030  0.008
 H         -0.344 -0.322 -0.197   -0.042 -0.152  0.148   -0.013 -0.029  0.009
 H          0.190  0.301  0.115    0.432 -0.316 -0.002   -0.038 -0.012  0.010
 H         -0.015 -0.029  0.073   -0.048  0.105 -0.335    0.021  0.001  0.036
 TransDip   0.002  0.000 -0.001   -0.013  0.006  0.005    0.026  0.031  0.017

 Mode:                10                     11                     12
 Frequency:       714.30                 802.42                 812.36
 Force Cnst:      0.3603                 0.5597                 0.4495
 Red. Mass:       1.1986                 1.4755                 1.1561
 IR Active:          YES                    YES                    YES
 IR Intens:       34.099                  0.793                  0.919
 Raman Active:       YES                    YES                    YES
               X      Y      Z        X      Y      Z        X      Y      Z
 C          0.019  0.025  0.013    0.006  0.021  0.002    0.020 -0.046 -0.035
 C          0.018  0.021  0.012   -0.032 -0.015  0.003   -0.055  0.008  0.004
 C         -0.036  0.019  0.003    0.037 -0.013 -0.002   -0.005  0.012  0.034
 C         -0.048 -0.052 -0.022    0.063  0.119  0.040    0.019 -0.011 -0.039
 C         -0.044 -0.061 -0.026   -0.098 -0.087 -0.022   -0.018  0.043 -0.002
 C          0.026 -0.019 -0.029    0.026 -0.023 -0.024    0.027 -0.007  0.020
 H          0.033  0.039  0.015    0.012 -0.034  0.010   -0.175 -0.322 -0.032
 H          0.009  0.014  0.010    0.023  0.054  0.026   -0.233 -0.232 -0.010
 H          0.011  0.008  0.006   -0.080 -0.124 -0.032   -0.095 -0.279 -0.065
 H          0.028  0.040  0.016   -0.037 -0.068 -0.030   -0.211 -0.307 -0.014
 H         -0.068 -0.265 -0.169    0.121  0.376  0.206    0.074  0.272  0.157
 H          0.175  0.289  0.233   -0.218 -0.368 -0.243    0.155  0.325  0.083
 H          0.228  0.331  0.206   -0.081 -0.097 -0.099    0.075  0.074  0.015
 H          0.308  0.273  0.160    0.089  0.074  0.073    0.018  0.074  0.015
 H         -0.287 -0.155 -0.059   -0.272 -0.176 -0.057    0.364  0.209  0.066
 H          0.338  0.232  0.167    0.423  0.348  0.169    0.172  0.213 -0.002
 TransDip   0.109  0.142  0.053    0.022 -0.015 -0.011    0.013  0.016  0.023

 Mode:                13                     14                     15
 Frequency:       867.51                 956.19                 959.59
 Force Cnst:      0.4581                 0.8497                 0.6494
 Red. Mass:       1.0331                 1.5773                 1.1970
 IR Active:          YES                    YES                    YES
 IR Intens:        0.279                 15.773                  8.455
 Raman Active:       YES                    YES                    YES
               X      Y      Z        X      Y      Z        X      Y      Z
 C         -0.011  0.015 -0.027    0.017  0.009 -0.000    0.050  0.054  0.010
 C         -0.003  0.011 -0.032   -0.001  0.013  0.004   -0.036 -0.070 -0.021
 C         -0.000  0.000 -0.003   -0.104  0.035  0.058    0.027  0.034  0.005
 C         -0.003  0.003  0.002   -0.048  0.087  0.016   -0.002 -0.018  0.002
 C          0.004 -0.001 -0.002    0.090  0.013 -0.059    0.008  0.015  0.002
 C         -0.002  0.001 -0.002    0.080 -0.078 -0.040   -0.034 -0.036 -0.008
 H          0.456 -0.193  0.036   -0.115 -0.093 -0.004   -0.246 -0.200  0.005
 H         -0.319  0.085  0.365   -0.111 -0.113 -0.020   -0.288 -0.260 -0.039
 H          0.376 -0.326  0.011   -0.039 -0.090 -0.027    0.155  0.395  0.132
 H         -0.236  0.219  0.388   -0.039 -0.118 -0.034    0.083  0.334  0.097
 H         -0.013 -0.034 -0.018    0.228 -0.040 -0.236   -0.131 -0.254 -0.080
 H         -0.020 -0.039 -0.006   -0.108 -0.290  0.465   -0.144 -0.231 -0.132
 H         -0.006 -0.002 -0.002   -0.062 -0.040 -0.140   -0.021 -0.011  0.029
 H         -0.001 -0.006 -0.005   -0.103 -0.015 -0.126   -0.033  0.017 -0.008
 H         -0.032 -0.022 -0.008   -0.200  0.254  0.010    0.232  0.212  0.041
 H         -0.029 -0.036 -0.004    0.144 -0.382  0.360    0.231  0.249  0.078
 TransDip  -0.004 -0.015  0.007   -0.070 -0.106 -0.009   -0.066  0.053  0.039

 Mode:                16                     17                     18
 Frequency:       998.42                1016.67                1027.12
 Force Cnst:      0.6965                 0.7419                 0.7546
 Red. Mass:       1.1859                 1.2182                 1.2140
 IR Active:          YES                    YES                    YES
 IR Intens:       16.475                  1.128                  0.544
 Raman Active:       YES                    YES                    YES
               X      Y      Z        X      Y      Z        X      Y      Z
 C         -0.009 -0.006 -0.009   -0.048 -0.023 -0.038    0.034  0.049 -0.027
 C         -0.012 -0.018 -0.010    0.017  0.021  0.045   -0.021 -0.071  0.014
 C          0.013  0.010  0.049    0.019  0.034  0.017   -0.034 -0.060 -0.029
 C         -0.054 -0.009 -0.042   -0.026 -0.032 -0.033   -0.006  0.006  0.002
 C         -0.022 -0.030 -0.060    0.043  0.027  0.029    0.000  0.008  0.013
 C          0.040 -0.000  0.038   -0.041 -0.046 -0.018    0.043  0.030  0.008
 H          0.008  0.000 -0.009   -0.012 -0.163 -0.021   -0.276 -0.409 -0.015
 H          0.049  0.052  0.003    0.353  0.422  0.112    0.010  0.111  0.075
 H          0.026  0.090  0.023   -0.259 -0.364 -0.118   -0.113  0.028  0.006
 H          0.018  0.071  0.009    0.163  0.203 -0.018    0.244  0.496  0.057
 H          0.099  0.250  0.153   -0.062 -0.122 -0.032    0.160  0.333  0.097
 H         -0.209 -0.334 -0.113   -0.122 -0.199 -0.077    0.141  0.234  0.084
 H          0.183  0.388  0.231    0.129  0.171  0.082    0.082  0.097  0.034
 H          0.376  0.268  0.126   -0.158 -0.146 -0.073   -0.132 -0.115 -0.056
 H          0.217  0.138  0.066    0.167  0.213  0.030   -0.228 -0.190 -0.034
 H         -0.254 -0.304 -0.081    0.217  0.203  0.094   -0.090 -0.141 -0.005
 TransDip   0.074  0.100  0.037    0.013  0.029  0.011    0.020  0.012  0.002

 Mode:                19                     20                     21
 Frequency:      1034.89                1037.36                1101.45
 Force Cnst:      0.7506                 0.7325                 1.1563
 Red. Mass:       1.1896                 1.1554                 1.6176
 IR Active:          YES                    YES                    YES
 IR Intens:       33.006                 23.624                  2.151
 Raman Active:       YES                    YES                    YES
               X      Y      Z        X      Y      Z        X      Y      Z
 C         -0.024 -0.039 -0.019   -0.009 -0.034  0.016    0.001  0.013  0.004
 C         -0.019 -0.026  0.002   -0.029 -0.016 -0.028    0.010  0.003 -0.002
 C         -0.055 -0.035 -0.020   -0.017 -0.034 -0.009   -0.011  0.060 -0.048
 C          0.042  0.037  0.039   -0.025 -0.025 -0.014    0.087 -0.129  0.034
 C         -0.022 -0.028 -0.018    0.037  0.036  0.035   -0.065 -0.038  0.088
 C         -0.029 -0.036 -0.009   -0.020 -0.041 -0.032   -0.028  0.089 -0.041
 H          0.181  0.117 -0.014    0.301  0.360  0.009   -0.068 -0.045  0.002
 H          0.237  0.208  0.024    0.045 -0.039 -0.048   -0.075 -0.050  0.002
 H          0.026  0.158  0.053    0.179  0.325  0.105   -0.013 -0.077 -0.026
 H          0.099  0.305  0.071   -0.084 -0.007  0.045   -0.004 -0.059 -0.026
 H          0.119  0.106 -0.051    0.211  0.389  0.113    0.318  0.098 -0.272
 H          0.149  0.222  0.214    0.030  0.040  0.032   -0.090 -0.263  0.111
 H         -0.133 -0.299 -0.224    0.218  0.280  0.147    0.539 -0.074 -0.276
 H          0.241  0.287  0.138   -0.322 -0.196 -0.127   -0.255  0.305  0.140
 H          0.307  0.364  0.063   -0.037  0.090 -0.011   -0.132  0.237 -0.027
 H          0.061  0.039  0.040    0.209  0.123  0.128   -0.132 -0.040 -0.034
 TransDip   0.150  0.106  0.015    0.022  0.141  0.063    0.016  0.035 -0.027

 Mode:                22                     23                     24
 Frequency:      1113.51                1232.20                1254.34
 Force Cnst:      1.1156                 1.6427                 1.3190
 Red. Mass:       1.5271                 1.8363                 1.4229
 IR Active:          YES                    YES                    YES
 IR Intens:        0.842                  0.067                  0.071
 Raman Active:       YES                    YES                    YES
               X      Y      Z        X      Y      Z        X      Y      Z
 C          0.004  0.000 -0.000   -0.123  0.097  0.068   -0.034  0.040 -0.116
 C         -0.005 -0.005 -0.001    0.146 -0.058 -0.065    0.032 -0.039  0.116
 C         -0.106  0.010  0.069   -0.010 -0.016 -0.058   -0.005  0.022 -0.029
 C          0.060 -0.019 -0.006   -0.037 -0.005  0.062    0.008 -0.023  0.031
 C          0.071 -0.018 -0.095    0.046 -0.052  0.017   -0.002  0.019 -0.033
 C         -0.077  0.064  0.053   -0.046  0.004 -0.036    0.002 -0.020  0.030
 H          0.012 -0.001  0.001   -0.343  0.136  0.062    0.454 -0.137 -0.056
 H          0.008  0.001 -0.003   -0.309  0.081  0.200   -0.373  0.073  0.261
 H          0.008  0.034  0.011    0.268 -0.249 -0.088   -0.318  0.319  0.087
 H          0.006  0.025  0.005    0.239 -0.180 -0.228    0.247 -0.257 -0.287
 H          0.167  0.066 -0.085    0.184  0.229 -0.038    0.097  0.020 -0.111
 H         -0.109 -0.227  0.378    0.057  0.093 -0.029   -0.013 -0.010 -0.023
 H          0.173 -0.011 -0.105   -0.169  0.044  0.238   -0.102 -0.013  0.141
 H          0.285 -0.357 -0.128    0.218 -0.171  0.033   -0.102  0.128 -0.032
 H          0.140 -0.358 -0.013    0.100  0.268  0.007    0.079 -0.118  0.019
 H         -0.055  0.442 -0.304    0.034  0.104 -0.015    0.016  0.008  0.015
 TransDip   0.019 -0.022 -0.005    0.003 -0.002  0.008   -0.006  0.005  0.003

 Mode:                25                     26                     27
 Frequency:      1271.36                1305.67                1443.46
 Force Cnst:      1.4615                 1.5234                 1.4776
 Red. Mass:       1.5347                 1.5167                 1.2036
 IR Active:          YES                    YES                    YES
 IR Intens:        0.206                  2.329                  2.326
 Raman Active:       YES                    YES                    YES
               X      Y      Z        X      Y      Z        X      Y      Z
 C          0.011 -0.021  0.040   -0.078  0.031  0.035    0.001  0.002 -0.001
 C         -0.017  0.024 -0.037    0.065 -0.050 -0.038   -0.001 -0.003  0.001
 C         -0.015  0.062 -0.088   -0.000 -0.043  0.066   -0.005  0.012 -0.031
 C          0.023 -0.062  0.082    0.021  0.030 -0.074    0.049  0.011 -0.079
 C         -0.004  0.047 -0.088   -0.033  0.067 -0.056    0.046 -0.065  0.031
 C          0.009 -0.054  0.087    0.013 -0.055  0.069    0.008 -0.011  0.023
 H         -0.147  0.039  0.021   -0.139  0.163  0.030    0.002 -0.008 -0.001
 H          0.190  0.005 -0.104   -0.091  0.128  0.144   -0.008 -0.002  0.002
 H          0.090 -0.165 -0.044    0.212 -0.049 -0.007    0.005  0.006  0.004
 H         -0.097  0.095  0.105    0.173 -0.014 -0.126    0.012  0.005 -0.008
 H          0.278  0.100 -0.296   -0.201 -0.077  0.203   -0.283  0.073  0.242
 H         -0.035 -0.037 -0.053    0.023  0.009  0.093    0.052 -0.195  0.432
 H         -0.297 -0.028  0.410    0.318 -0.009 -0.394   -0.301  0.046  0.266
 H         -0.291  0.351 -0.088   -0.362  0.399 -0.065   -0.270  0.273  0.038
 H          0.177 -0.351  0.055    0.143 -0.298  0.042   -0.258  0.232  0.039
 H          0.044  0.031  0.029    0.064 -0.008  0.073   -0.110  0.208 -0.348
 TransDip  -0.011  0.008  0.005   -0.021 -0.043  0.008   -0.037  0.019  0.025

 Mode:                28                     29                     30
 Frequency:      1478.31                1494.13                1543.48
 Force Cnst:      1.4285                 2.1186                 1.9590
 Red. Mass:       1.1094                 1.6107                 1.3957
 IR Active:          YES                    YES                    YES
 IR Intens:        2.880                  9.108                  3.032
 Raman Active:       YES                    YES                    YES
               X      Y      Z        X      Y      Z        X      Y      Z
 C         -0.044  0.038  0.026    0.001 -0.020 -0.007    0.055 -0.057 -0.037
 C         -0.063  0.021  0.026   -0.017 -0.009  0.002   -0.077  0.018  0.029
 C          0.000 -0.001  0.001   -0.013  0.038 -0.036   -0.034 -0.003  0.073
 C         -0.000 -0.002 -0.001    0.122 -0.057 -0.066    0.051 -0.003 -0.048
 C         -0.001  0.003  0.001   -0.122  0.088  0.053   -0.041  0.044  0.007
 C          0.001  0.001 -0.001    0.007  0.027 -0.049    0.050 -0.047  0.025
 H          0.328 -0.352  0.081   -0.076  0.135 -0.024   -0.211  0.287 -0.089
 H          0.178 -0.168 -0.418   -0.035  0.069  0.131   -0.092  0.131  0.332
 H          0.456 -0.187  0.121    0.125 -0.024  0.038    0.311 -0.098  0.116
 H          0.304  0.002 -0.409    0.090  0.031 -0.097    0.194  0.046 -0.279
 H         -0.005 -0.005  0.001   -0.205  0.052  0.129    0.248 -0.121 -0.226
 H          0.002  0.004 -0.000    0.017 -0.224  0.401   -0.095  0.122 -0.264
 H          0.004  0.000 -0.001   -0.195 -0.039  0.256   -0.089 -0.008  0.063
 H          0.007 -0.012 -0.000    0.222 -0.295  0.056    0.038 -0.076 -0.006
 H         -0.000  0.005 -0.000    0.203 -0.194 -0.069   -0.294  0.195  0.049
 H         -0.002 -0.009  0.003    0.104 -0.294  0.403   -0.059  0.100 -0.276
 TransDip   0.044 -0.024 -0.021    0.005 -0.062  0.074   -0.029 -0.005 -0.047

 Mode:                31                     32                     33
 Frequency:      1584.72                1592.33                3106.93
 Force Cnst:      3.2408                 3.3008                 6.0508
 Red. Mass:       2.1903                 2.2095                 1.0639
 IR Active:          YES                    YES                    YES
 IR Intens:        2.744                  0.363                  5.837
 Raman Active:       YES                    YES                    YES
               X      Y      Z        X      Y      Z        X      Y      Z
 C         -0.112  0.070  0.058   -0.023  0.010  0.010    0.019 -0.023 -0.006
 C          0.116 -0.061 -0.056    0.021 -0.008 -0.009    0.025 -0.003 -0.015
 C         -0.067 -0.017  0.108    0.056  0.038 -0.114   -0.013  0.002  0.018
 C          0.127 -0.010 -0.122   -0.050 -0.054  0.126    0.021 -0.029  0.023
 C         -0.087  0.075  0.032   -0.098  0.157 -0.064    0.008  0.007 -0.027
 C          0.045 -0.050  0.010    0.087 -0.137  0.065   -0.010  0.010 -0.002
 H          0.245 -0.249  0.123    0.048 -0.029  0.022   -0.020  0.018  0.289
 H          0.108 -0.073 -0.343    0.024 -0.001 -0.053   -0.204  0.253 -0.217
 H         -0.282  0.155 -0.134   -0.055  0.020 -0.026   -0.095 -0.075  0.350
 H         -0.154 -0.010  0.315   -0.031 -0.011  0.054   -0.200  0.109 -0.176
 H          0.293 -0.106 -0.221   -0.242  0.088  0.136   -0.096  0.086 -0.119
 H         -0.122  0.126 -0.207    0.107 -0.162  0.243    0.243 -0.113 -0.083
 H         -0.196  0.001  0.169    0.287 -0.088 -0.186   -0.244  0.343 -0.280
 H          0.046 -0.101  0.025    0.305 -0.297 -0.091   -0.091 -0.090  0.333
 H         -0.189  0.151  0.035   -0.339  0.274  0.124   -0.006 -0.015  0.112
 H         -0.005  0.015 -0.130   -0.021  0.133 -0.394    0.127 -0.091 -0.092
 TransDip  -0.029 -0.009 -0.043    0.005 -0.009 -0.016    0.061 -0.046 -0.012

 Mode:                34                     35                     36
 Frequency:      3108.88                3114.86                3121.09
 Force Cnst:      6.0709                 6.0631                 6.1168
 Red. Mass:       1.0661                 1.0606                 1.0658
 IR Active:          YES                    YES                    YES
 IR Intens:        1.082                 12.151                 13.538
 Raman Active:       YES                    YES                    YES
               X      Y      Z        X      Y      Z        X      Y      Z
 C         -0.021  0.026  0.007    0.005 -0.005 -0.002   -0.005  0.007  0.003
 C         -0.025  0.003  0.014   -0.010  0.002  0.006   -0.005  0.001  0.001
 C         -0.009  0.003  0.008    0.017 -0.000 -0.034   -0.020 -0.002  0.042
 C          0.022 -0.032  0.026   -0.007  0.007 -0.004   -0.010  0.020 -0.019
 C          0.007  0.009 -0.028    0.010  0.006 -0.030   -0.002 -0.008  0.016
 C         -0.002  0.000  0.004   -0.032  0.029 -0.012   -0.028  0.028 -0.014
 H          0.024 -0.020 -0.324   -0.004  0.004  0.055    0.007 -0.007 -0.099
 H          0.226 -0.279  0.240   -0.042  0.051 -0.043    0.056 -0.071  0.061
 H          0.096  0.076 -0.354    0.035  0.025 -0.124    0.016  0.015 -0.063
 H          0.206 -0.113  0.181    0.072 -0.039  0.062    0.049 -0.027  0.043
 H         -0.038  0.034 -0.045    0.195 -0.176  0.245   -0.234  0.213 -0.295
 H          0.156 -0.075 -0.054   -0.387  0.181  0.134    0.444 -0.207 -0.154
 H         -0.265  0.373 -0.305    0.063 -0.087  0.069    0.149 -0.213  0.177
 H         -0.091 -0.092  0.337   -0.099 -0.095  0.359    0.046  0.051 -0.177
 H          0.000  0.005 -0.031   -0.020 -0.057  0.407   -0.019 -0.056  0.390
 H          0.027 -0.018 -0.018    0.383 -0.270 -0.275    0.332 -0.234 -0.238
 TransDip  -0.015 -0.002  0.030   -0.022  0.042 -0.101   -0.092  0.061  0.040

 Mode:                37                     38                     39
 Frequency:      3122.24                3132.55                3189.93
 Force Cnst:      6.1071                 6.3052                 6.6895
 Red. Mass:       1.0633                 1.0906                 1.1158
 IR Active:          YES                    YES                    YES
 IR Intens:        2.598                  8.313                  0.151
 Raman Active:       YES                    YES                    YES
               X      Y      Z        X      Y      Z        X      Y      Z
 C         -0.030  0.035  0.012   -0.000 -0.001 -0.001   -0.014  0.018 -0.064
 C          0.045 -0.007 -0.023   -0.000 -0.000 -0.000    0.023 -0.024  0.060
 C          0.005 -0.002 -0.007   -0.004 -0.004  0.018   -0.013  0.008 -0.004
 C         -0.001  0.002 -0.002   -0.024  0.034 -0.026   -0.001  0.001 -0.001
 C          0.001  0.002 -0.006    0.017  0.017 -0.060   -0.000 -0.000  0.002
 C         -0.006  0.003 -0.000    0.013 -0.015  0.015   -0.006  0.003  0.014
 H          0.030 -0.029 -0.404   -0.001  0.002  0.014   -0.049  0.049  0.551
 H          0.274 -0.342  0.290   -0.003  0.005 -0.004    0.212 -0.264  0.213
 H         -0.144 -0.113  0.520    0.000  0.001 -0.001    0.120  0.084 -0.398
 H         -0.323  0.174 -0.279    0.005 -0.002  0.004   -0.387  0.204 -0.318
 H          0.040 -0.035  0.049   -0.109  0.099 -0.138    0.062 -0.058  0.083
 H         -0.100  0.049  0.036    0.134 -0.061 -0.047    0.094 -0.043 -0.035
 H          0.019 -0.024  0.020    0.264 -0.367  0.298    0.008 -0.011  0.010
 H         -0.019 -0.018  0.071   -0.185 -0.180  0.676    0.004  0.004 -0.017
 H         -0.002 -0.007  0.052    0.012  0.038 -0.265    0.003  0.017 -0.108
 H          0.068 -0.046 -0.048   -0.139  0.100  0.099    0.074 -0.053 -0.051
 TransDip   0.013  0.037 -0.034    0.015  0.058 -0.070   -0.010  0.006  0.005

 Mode:                40                     41                     42
 Frequency:      3199.76                3202.82                3212.94
 Force Cnst:      6.7304                 6.7405                 6.7964
 Red. Mass:       1.1157                 1.1153                 1.1174
 IR Active:          YES                    YES                    YES
 IR Intens:        3.198                  9.660                 10.359
 Raman Active:       YES                    YES                    YES
               X      Y      Z        X      Y      Z        X      Y      Z
 C          0.002 -0.003  0.012   -0.004  0.005 -0.013   -0.015  0.019 -0.066
 C          0.004 -0.004  0.008    0.004 -0.006  0.015   -0.023  0.025 -0.061
 C         -0.058  0.037 -0.020    0.051 -0.034  0.020   -0.008  0.006 -0.003
 C         -0.003  0.005 -0.004    0.003 -0.004  0.002   -0.000  0.000 -0.000
 C          0.002  0.002 -0.007    0.002  0.001 -0.006    0.000  0.000 -0.001
 C          0.026 -0.012 -0.059    0.027 -0.012 -0.065    0.004 -0.002 -0.010
 H          0.011 -0.009 -0.105   -0.008  0.011  0.108   -0.050  0.048  0.546
 H         -0.033  0.042 -0.033    0.053 -0.065  0.054    0.228 -0.281  0.228
 H          0.014  0.010 -0.045    0.031  0.022 -0.107   -0.123 -0.084  0.413
 H         -0.061  0.034 -0.049   -0.087  0.044 -0.072    0.383 -0.204  0.314
 H          0.293 -0.271  0.394   -0.273  0.251 -0.361    0.046 -0.041  0.062
 H          0.393 -0.180 -0.147   -0.335  0.154  0.127    0.053 -0.025 -0.020
 H          0.035 -0.050  0.042   -0.028  0.039 -0.033    0.004 -0.006  0.005
 H         -0.018 -0.019  0.068   -0.017 -0.018  0.066   -0.002 -0.003  0.009
 H         -0.012 -0.079  0.494   -0.016 -0.087  0.556   -0.001 -0.013  0.091
 H         -0.302  0.216  0.206   -0.315  0.225  0.212   -0.049  0.034  0.033
 TransDip  -0.016  0.025 -0.049    0.078 -0.045 -0.042   -0.026  0.034 -0.094

 STANDARD THERMODYNAMIC QUANTITIES AT   298.15 K  AND     1.00 ATM

   This Molecule has  1 Imaginary Frequencies
   Zero point vibrational energy:       87.832 kcal/mol

   Atom    1 Element C  Has Mass   12.00000
   Atom    2 Element C  Has Mass   12.00000
   Atom    3 Element C  Has Mass   12.00000
   Atom    4 Element C  Has Mass   12.00000
   Atom    5 Element C  Has Mass   12.00000
   Atom    6 Element C  Has Mass   12.00000
   Atom    7 Element H  Has Mass    1.00783
   Atom    8 Element H  Has Mass    1.00783
   Atom    9 Element H  Has Mass    1.00783
   Atom   10 Element H  Has Mass    1.00783
   Atom   11 Element H  Has Mass    1.00783
   Atom   12 Element H  Has Mass    1.00783
   Atom   13 Element H  Has Mass    1.00783
   Atom   14 Element H  Has Mass    1.00783
   Atom   15 Element H  Has Mass    1.00783
   Atom   16 Element H  Has Mass    1.00783
   Molecular Mass:    82.078300 amu
   Principal axes and moments of inertia in amu*Bohr^2:
                             1           2           3
    Eigenvalues --      421.23049   525.33429   804.46925
          X               0.43051     0.79631     0.42491
          Y               0.89160    -0.44843    -0.06296
          Z              -0.14041    -0.40595     0.90304
   Rotational Symmetry Number is   1
   The Molecule is an Asymmetric Top
   Translational Enthalpy:        0.889 kcal/mol
   Rotational Enthalpy:           0.889 kcal/mol
   Vibrational Enthalpy:         89.913 kcal/mol
   gas constant (RT):             0.592 kcal/mol
   Translational Entropy:        39.129  cal/mol.K
   Rotational Entropy:           26.679  cal/mol.K
   Vibrational Entropy:          10.533  cal/mol.K

   Total Enthalpy:               92.283 kcal/mol
   Total Entropy:                76.341  cal/mol.K
Archival summary:
1\1\nid00459\FREQ\ProcedureUnspecified\BasisUnspecified\610\cgrambow\WedFeb2010:56:442019WedFeb2010:56:442019\0\\#,FREQ,ProcedureUnspecified,BasisUnspecified,\\0,1\C\H,1,1.09234\C,1,1.38696,2,118.585\H,3,1.08759,1,120.722,2,162.696,0\H,3,1.09027,1,120.27,2,6.32994,0\C,1,1.41328,2,117.751,3,-166.513,0\H,6,1.09242,1,117.831,2,-0.217133,0\C,6,1.38629,1,122.201,2,165.923,0\H,8,1.08735,6,120.864,1,30.8723,0\H,8,1.09029,6,120.337,1,-172.03,0\C,3,2.29183,1,101.236,2,-106.958,0\H,11,1.08756,3,90.2542,1,72.6152,0\H,11,1.08976,3,90.5818,1,-171.857,0\C,11,1.38899,3,109.261,1,-49.6037,0\H,14,1.08764,11,120.141,3,101.618,0\H,14,1.0896,11,120.117,3,-102.324,0\\\@

 Total job time:  2968.72s(wall), 10666.13s(cpu) 
 Wed Feb 20 10:56:44 2019

        *************************************************************
        *                                                           *
        *  Thank you very much for using Q-Chem.  Have a nice day.  *
        *                                                           *
        *************************************************************



Running Job 2 of 3 ts_optfreq0163.in
qchem ts_optfreq0163.in_12469.1 /tmp/qchem12469/ 1
/global/common/cori/software/qchem/5.1/exe/qcprog.exe ts_optfreq0163.in_12469.1 /tmp/qchem12469/
Check license passed

                  Welcome to Q-Chem
     A Quantum Leap Into The Future Of Chemistry


 Q-Chem 5.1, Q-Chem, Inc., Pleasanton, CA (2018)

 Yihan Shao,  Zhengting Gan,  E. Epifanovsky,  A. T. B. Gilbert,  M. Wormit,  
 J. Kussmann,  A. W. Lange,  A. Behn,  Jia Deng,  Xintian Feng,  D. Ghosh,  
 M. Goldey,  P. R. Horn,  L. D. Jacobson,  I. Kaliman,  T. Kus,  A. Landau,  
 Jie Liu,  E. I. Proynov,  R. M. Richard,  R. P. Steele,  E. J. Sundstrom,  
 H. L. Woodcock III,  P. M. Zimmerman,  D. Zuev,  B. Albrecht,  E. Alguire,  
 S. A. Baeppler,  D. Barton,  Z. Benda,  Y. A. Bernard,  E. J. Berquist,  
 K. B. Bravaya,  H. Burton,  D. Casanova,  Chun-Min Chang,  Yunqing Chen,  
 A. Chien,  K. D. Closser,  M. P. Coons,  S. Coriani,  S. Dasgupta,  
 A. L. Dempwolff,  M. Diedenhofen,  Hainam Do,  R. G. Edgar,  Po-Tung Fang,  
 S. Faraji,  S. Fatehi,  Qingguo Feng,  K. D. Fenk,  J. Fosso-Tande,  
 Qinghui Ge,  A. Ghysels,  G. Gidofalvi,  J. Gomes,  J. Gonthier,  A. Gunina,  
 D. Hait,  M. W. D. Hanson-Heine,  P. H. P. Harbach,  A. W. Hauser,  
 J. E. Herr,  E. G. Hohenstein,  Z. C. Holden,  Kerwin Hui,  B. C. Huynh,  
 T.-C. Jagau,  Hyunjun Ji,  B. Kaduk,  K. Khistyaev,  Jaehoon Kim,  
 P. Klunzinger,  K. Koh,  D. Kosenkov,  L. Koulias,  T. Kowalczyk,  
 C. M. Krauter,  A. Kunitsa,  Ka Un Lao,  A. Laurent,  K. V. Lawler,  
 Joonho Lee,  D. Lefrancois,  S. Lehtola,  D. S. Levine,  Yi-Pei Li,  
 You-Sheng Lin,  Fenglai Liu,  E. Livshits,  A. Luenser,  P. Manohar,  
 E. Mansoor,  S. F. Manzer,  Shan-Ping Mao,  Yuezhi Mao,  N. Mardirossian,  
 A. V. Marenich,  T. Markovich,  L. A. Martinez-Martinez,  S. A. Maurer,  
 N. J. Mayhall,  S. C. McKenzie,  J.-M. Mewes,  A. F. Morrison,  
 J. W. Mullinax,  K. Nanda,  T. S. Nguyen-Beck,  R. Olivares-Amaya,  
 J. A. Parkhill,  T. M. Perrine,  F. Plasser,  P. Pokhilko,  S. Prager,  
 A. Prociuk,  E. Ramos,  D. R. Rehn,  F. Rob,  M. Schneider,  N. Sergueev,  
 S. M. Sharada,  S. Sharma,  D. W. Small,  T. Stauch,  T. Stein,  
 Yu-Chuan Su,  A. J. W. Thom,  A. Tkatchenko,  T. Tsuchimochi,  N. M. Tubman,  
 L. Vogt,  M. L. Vidal,  O. Vydrov,  M. A. Watson,  J. Wenzel,  
 M. de Wergifosse,  T. A. Wesolowski,  A. White,  J. Witte,  A. Yamada,  
 Jun Yang,  K. Yao,  S. Yeganeh,  S. R. Yost,  Zhi-Qiang You,  A. Zech,  
 Igor Ying Zhang,  Xing Zhang,  Yan Zhao,  Ying Zhu,  B. R. Brooks,  
 G. K. L. Chan,  C. J. Cramer,  M. S. Gordon,  W. J. Hehre,  A. Klamt,  
 M. W. Schmidt,  C. D. Sherrill,  D. G. Truhlar,  A. Aspuru-Guzik,  R. Baer,  
 A. T. Bell,  N. A. Besley,  Jeng-Da Chai,  R. A. DiStasio Jr.,  A. Dreuw,  
 B. D. Dunietz,  T. R. Furlani,  Chao-Ping Hsu,  Yousung Jung,  Jing Kong,  
 D. S. Lambrecht,  WanZhen Liang,  C. Ochsenfeld,  V. A. Rassolov,  
 L. V. Slipchenko,  J. E. Subotnik,  T. Van Voorhis,  J. M. Herbert,  
 A. I. Krylov,  P. M. W. Gill,  M. Head-Gordon

 Contributors to earlier versions of Q-Chem not listed above: 
 R. D. Adamson,  B. Austin,  J. Baker,  G. J. O. Beran,  K. Brandhorst,  
 S. T. Brown,  E. F. C. Byrd,  A. K. Chakraborty,  C.-L. Cheng,  
 Siu Hung Chien,  D. M. Chipman,  D. L. Crittenden,  H. Dachsel,  
 R. J. Doerksen,  A. D. Dutoi,  L. Fusti-Molnar,  W. A. Goddard III,  
 A. Golubeva-Zadorozhnaya,  S. R. Gwaltney,  G. Hawkins,  A. Heyden,  
 S. Hirata,  G. Kedziora,  F. J. Keil,  C. Kelley,  Jihan Kim,  R. A. King,  
 R. Z. Khaliullin,  P. P. Korambath,  W. Kurlancheek,  A. M. Lee,  M. S. Lee,  
 S. V. Levchenko,  Ching Yeh Lin,  D. Liotard,  R. C. Lochan,  I. Lotan,  
 P. E. Maslen,  N. Nair,  D. P. O'Neill,  D. Neuhauser,  E. Neuscamman,  
 C. M. Oana,  R. Olson,  B. Peters,  R. Peverati,  P. A. Pieniazek,  
 Y. M. Rhee,  J. Ritchie,  M. A. Rohrdanz,  E. Rosta,  N. J. Russ,  
 H. F. Schaefer III,  N. E. Schultz,  N. Shenvi,  A. C. Simmonett,  A. Sodt,  
 D. Stuck,  K. S. Thanthiriwatte,  V. Vanovschi,  Tao Wang,  A. Warshel,  
 C. F. Williams,  Q. Wu,  X. Xu,  W. Zhang

 Please cite Q-Chem as follows:
 Y. Shao et al., Mol. Phys. 113, 184-215 (2015)
 DOI: 10.1080/00268976.2014.952696

 Q-Chem 5.1.0 for Intel X86 EM64T Linux

 Parts of Q-Chem use Armadillo 8.300.2 (Tropical Shenanigans).
 http://arma.sourceforge.net/

 Q-Chem begins on Wed Feb 20 10:56:45 2019  

Host: cori01
0

     Scratch files written to /tmp/qchem12469//
 Jun2518 |scratch|qcdevops|jenkins|workspace|build_RNUM -1
Processing $rem in /global/common/cori/software/qchem/5.1/config/preferences.
 MEM_TOTAL  96000 
The previous job contains 0 fragments, simply inherited here

Checking the input file for inconsistencies... 	...done.

--------------------------------------------------------------
User input:
--------------------------------------------------------------

$molecule
read
$end

[...]

 Mode:                16                     17                     18
 Frequency:       986.72                 998.17                1018.27
 Force Cnst:      0.7050                 0.6735                 0.7796
 Red. Mass:       1.2289                 1.1473                 1.2761
 IR Active:          YES                    YES                    YES
 IR Intens:        3.268                  0.338                  6.693
 Raman Active:       YES                    YES                    YES
               X      Y      Z        X      Y      Z        X      Y      Z
 C          0.003  0.000  0.010   -0.019  0.016 -0.046   -0.033 -0.046  0.027
 C          0.011  0.012  0.009    0.006 -0.019  0.048    0.003  0.052 -0.017
 C          0.021 -0.028 -0.060    0.005  0.005  0.001    0.037  0.037  0.028
 C          0.059 -0.017  0.028   -0.031 -0.028 -0.034   -0.039 -0.041 -0.038
 C         -0.007  0.025  0.066    0.041  0.030  0.036    0.047  0.036  0.033
 C         -0.067  0.019 -0.018   -0.007 -0.019 -0.010   -0.038 -0.048 -0.031
 H          0.063  0.053  0.010   -0.175 -0.356 -0.015    0.300  0.396  0.003
 H          0.005  0.001  0.008    0.243  0.359  0.121    0.055 -0.039 -0.054
 H         -0.002 -0.039 -0.006   -0.263 -0.298 -0.093    0.094  0.016  0.004
 H          0.003  0.003  0.016    0.234  0.381  0.003   -0.192 -0.382 -0.036
 H         -0.193 -0.236 -0.041    0.011  0.039  0.018   -0.014 -0.010  0.035
 H          0.244  0.444 -0.061   -0.057 -0.089 -0.047   -0.167 -0.275 -0.129
 H         -0.156 -0.305 -0.137    0.173  0.235  0.118    0.179  0.289  0.188
 H         -0.274 -0.250 -0.083   -0.230 -0.221 -0.114   -0.266 -0.206 -0.127
 H         -0.129 -0.251 -0.063   -0.010  0.039  0.000    0.041  0.105 -0.006
 H          0.210  0.452 -0.051    0.126  0.093  0.071    0.239  0.211  0.107
 TransDip  -0.034 -0.038 -0.027   -0.004  0.016  0.009   -0.053  0.052  0.038

 Mode:                19                     20                     21
 Frequency:      1018.88                1029.05                1112.83
 Force Cnst:      0.7226                 0.7482                 1.1730
 Red. Mass:       1.1814                 1.1991                 1.6076
 IR Active:          YES                    YES                    YES
 IR Intens:        5.509                 39.566                  1.592
 Raman Active:       YES                    YES                    YES
               X      Y      Z        X      Y      Z        X      Y      Z
 C         -0.051 -0.046 -0.020   -0.012 -0.036 -0.008    0.002  0.011  0.004
 C          0.019  0.041  0.026   -0.038 -0.048 -0.017    0.006 -0.000 -0.003
 C          0.000  0.041  0.014   -0.058 -0.058 -0.028   -0.056  0.051 -0.005
 C          0.030  0.011  0.013    0.012  0.006  0.022    0.110 -0.126  0.029
 C         -0.011 -0.025 -0.017    0.006  0.004  0.017   -0.023 -0.033  0.015
 C         -0.051 -0.035 -0.002   -0.021 -0.044 -0.029   -0.070  0.113  0.007
 H          0.130  0.070 -0.019    0.252  0.213 -0.017   -0.045 -0.030  0.005
 H          0.268  0.253  0.033    0.187  0.125 -0.007   -0.062 -0.042  0.002
 H         -0.105 -0.219 -0.067    0.111  0.359  0.115   -0.003 -0.044 -0.015
 H          0.027 -0.011 -0.015    0.059  0.331  0.090   -0.001 -0.044 -0.021
 H         -0.122 -0.326 -0.139    0.276  0.429  0.045    0.335  0.120 -0.253
 H         -0.059 -0.103  0.029    0.155  0.227  0.192   -0.131 -0.321  0.235
 H         -0.137 -0.260 -0.181    0.084 -0.008 -0.063    0.561 -0.078 -0.297
 H          0.270  0.239  0.138   -0.088  0.067  0.006   -0.096  0.071  0.034
 H          0.402  0.378  0.071    0.137  0.298  0.027   -0.045 -0.072 -0.029
 H          0.081  0.148 -0.004    0.152  0.058  0.118   -0.143  0.250 -0.225
 TransDip   0.073  0.010 -0.014    0.114  0.159  0.049    0.019  0.022 -0.028

 Mode:                22                     23                     24
 Frequency:      1118.25                1251.77                1257.37
 Force Cnst:      1.1753                 1.2927                 1.5632
 Red. Mass:       1.5953                 1.4002                 1.6782
 IR Active:          YES                    YES                    YES
 IR Intens:        1.564                  0.067                  0.042
 Raman Active:       YES                    YES                    YES
               X      Y      Z        X      Y      Z        X      Y      Z
 C         -0.003  0.007  0.003   -0.043  0.046 -0.114   -0.102  0.080  0.069
 C          0.011  0.006 -0.000    0.043 -0.043  0.114    0.123 -0.045 -0.066
 C          0.098  0.017 -0.081   -0.003  0.013 -0.021   -0.010 -0.006 -0.063
 C         -0.001 -0.051  0.011    0.003 -0.014  0.021   -0.027 -0.017  0.065
 C         -0.100 -0.007  0.136    0.002  0.007 -0.017    0.037 -0.052  0.029
 C          0.043  0.000 -0.060   -0.002 -0.012  0.015   -0.042  0.012 -0.042
 H         -0.050 -0.022  0.002    0.444 -0.122 -0.058   -0.357  0.163  0.056
 H         -0.047 -0.026  0.005   -0.410  0.072  0.275   -0.250  0.081  0.185
 H         -0.012 -0.076 -0.025   -0.298  0.324  0.093    0.297 -0.264 -0.080
 H         -0.005 -0.055 -0.017    0.267 -0.287 -0.312    0.210 -0.134 -0.201
 H         -0.021 -0.049 -0.047    0.070  0.020 -0.074    0.209  0.216 -0.087
 H          0.058  0.088 -0.306   -0.007  0.002 -0.026    0.042  0.079 -0.050
 H          0.154 -0.041 -0.095   -0.086 -0.006  0.112   -0.197  0.026  0.274
 H         -0.415  0.471  0.185   -0.056  0.076 -0.016    0.227 -0.206  0.045
 H         -0.186  0.389 -0.007    0.058 -0.049  0.012    0.052  0.285 -0.003
 H         -0.043 -0.359  0.203    0.013  0.007  0.014    0.015  0.089 -0.027
 TransDip  -0.006  0.036 -0.016   -0.006  0.005  0.004    0.003 -0.001  0.006

 Mode:                25                     26                     27
 Frequency:      1281.12                1325.18                1441.38
 Force Cnst:      1.3739                 1.5159                 1.4476
 Red. Mass:       1.4207                 1.4651                 1.1826
 IR Active:          YES                    YES                    YES
 IR Intens:        0.650                  2.305                  2.109
 Raman Active:       YES                    YES                    YES
               X      Y      Z        X      Y      Z        X      Y      Z
 C          0.008 -0.016  0.021   -0.079  0.034  0.036    0.001  0.003 -0.001
 C         -0.015  0.018 -0.018    0.068 -0.050 -0.039   -0.001 -0.003  0.001
 C         -0.014  0.061 -0.080    0.001 -0.048  0.056   -0.002  0.013 -0.036
 C          0.028 -0.055  0.066   -0.001  0.040 -0.059    0.044  0.010 -0.072
 C          0.001  0.038 -0.079   -0.008  0.049 -0.064    0.043 -0.062  0.031
 C          0.008 -0.053  0.084    0.002 -0.054  0.066    0.009 -0.011  0.021
 H         -0.070  0.010  0.011   -0.173  0.186  0.026    0.003 -0.010 -0.000
 H          0.142  0.013 -0.072   -0.113  0.141  0.175   -0.009 -0.005 -0.000
 H          0.033 -0.113 -0.031    0.248 -0.070 -0.005    0.001  0.008  0.004
 H         -0.065  0.064  0.069    0.195 -0.023 -0.159    0.009  0.005 -0.005
 H          0.264  0.087 -0.287   -0.205 -0.052  0.219   -0.301  0.080  0.258
 H         -0.043 -0.031 -0.075    0.040  0.019  0.108    0.066 -0.206  0.456
 H         -0.340 -0.025  0.433    0.285  0.014 -0.359   -0.268  0.036  0.235
 H         -0.335  0.398 -0.079   -0.325  0.385 -0.072   -0.233  0.237  0.036
 H          0.174 -0.342  0.054    0.174 -0.283  0.044   -0.276  0.247  0.038
 H          0.048  0.021  0.045    0.071  0.012  0.077   -0.112  0.209 -0.362
 TransDip  -0.020  0.014  0.009   -0.020 -0.042  0.014   -0.035  0.019  0.025

 Mode:                28                     29                     30
 Frequency:      1474.37                1505.33                1552.88
 Force Cnst:      1.4179                 1.9646                 2.1612
 Red. Mass:       1.1071                 1.4715                 1.5211
 IR Active:          YES                    YES                    YES
 IR Intens:        2.853                  9.727                  1.791
 Raman Active:       YES                    YES                    YES
               X      Y      Z        X      Y      Z        X      Y      Z
 C         -0.044  0.039  0.027    0.004 -0.019 -0.007    0.077 -0.076 -0.050
 C         -0.061  0.021  0.026   -0.018 -0.005  0.004   -0.105  0.028  0.042
 C          0.000 -0.001  0.001    0.000  0.038 -0.054   -0.028  0.002  0.063
 C         -0.001 -0.001 -0.001    0.100 -0.056 -0.045    0.056 -0.005 -0.051
 C          0.000  0.002  0.001   -0.103  0.068  0.048   -0.046  0.046  0.009
 C          0.001  0.001 -0.001   -0.008  0.041 -0.051    0.047 -0.037  0.020
 H          0.324 -0.360  0.086   -0.056  0.102 -0.023   -0.232  0.329 -0.117
 H          0.172 -0.179 -0.424   -0.023  0.050  0.100   -0.086  0.151  0.384
 H          0.458 -0.176  0.120    0.102 -0.023  0.034    0.363 -0.104  0.148
 H          0.297  0.011 -0.405    0.070  0.027 -0.084    0.213  0.067 -0.331
 H         -0.005 -0.005  0.001   -0.254  0.074  0.175    0.180 -0.112 -0.175
 H          0.002  0.005 -0.003    0.045 -0.236  0.424   -0.087  0.074 -0.189
 H          0.006  0.001 -0.004   -0.130 -0.042  0.196   -0.087 -0.012  0.063
 H          0.005 -0.009 -0.001    0.168 -0.227  0.058    0.036 -0.077 -0.002
 H         -0.001  0.008  0.000    0.275 -0.238 -0.075   -0.252  0.136  0.035
 H         -0.002 -0.007  0.001    0.104 -0.290  0.442   -0.048  0.055 -0.211
 TransDip   0.043 -0.025 -0.021    0.015 -0.051  0.084   -0.025 -0.012 -0.033

 Mode:                31                     32                     33
 Frequency:      1616.81                1621.21                3166.65
 Force Cnst:      4.7321                 4.2411                 6.2224
 Red. Mass:       3.0725                 2.7387                 1.0532
 IR Active:          YES                    YES                    YES
 IR Intens:        2.112                  0.844                  4.105
 Raman Active:       YES                    YES                    YES
               X      Y      Z        X      Y      Z        X      Y      Z
 C          0.115 -0.066 -0.058   -0.059  0.028  0.028    0.023 -0.030 -0.009
 C         -0.114  0.071  0.059    0.054 -0.028 -0.026    0.035 -0.003 -0.020
 C          0.103  0.037 -0.176    0.038  0.040 -0.088   -0.010  0.000  0.019
 C         -0.195 -0.007  0.216   -0.004 -0.070  0.094    0.007 -0.009  0.006
 C          0.094 -0.055 -0.066   -0.149  0.218 -0.065    0.003  0.002 -0.010
 C         -0.030  0.016  0.009    0.112 -0.175  0.080   -0.010  0.010 -0.005
 H         -0.182  0.172 -0.115    0.092 -0.063  0.054   -0.022  0.033  0.382
 H         -0.068  0.036  0.261    0.045  0.002 -0.114   -0.257  0.322 -0.276
 H          0.193 -0.136  0.114   -0.098  0.046 -0.058   -0.130 -0.107  0.481
 H          0.086 -0.000 -0.248   -0.046 -0.012  0.114   -0.279  0.140 -0.239
 H         -0.362  0.158  0.246   -0.135  0.053  0.039   -0.109  0.093 -0.134
 H          0.184 -0.162  0.240    0.070 -0.121  0.161    0.213 -0.099 -0.076
 H          0.318 -0.025 -0.246    0.229 -0.100 -0.120   -0.078  0.111 -0.087
 H          0.042  0.036 -0.066    0.320 -0.327 -0.095   -0.036 -0.033  0.120
 H          0.117 -0.073  0.002   -0.383  0.279  0.146   -0.006 -0.017  0.134
 H         -0.006  0.045  0.010    0.004  0.099 -0.403    0.119 -0.085 -0.084
 TransDip   0.032  0.016  0.029   -0.005 -0.015 -0.025    0.053 -0.032 -0.017

 Mode:                34                     35                     36
 Frequency:      3171.36                3172.89                3181.29
 Force Cnst:      6.3037                 6.3029                 6.4235
 Red. Mass:       1.0638                 1.0626                 1.0773
 IR Active:          YES                    YES                    YES
 IR Intens:        5.833                  8.731                 16.127
 Raman Active:       YES                    YES                    YES
               X      Y      Z        X      Y      Z        X      Y      Z
 C         -0.013  0.016  0.006    0.001 -0.000  0.000    0.001 -0.002 -0.002
 C         -0.011  0.001  0.006   -0.013  0.002  0.007    0.008 -0.001 -0.003
 C         -0.025  0.003  0.041    0.007  0.001 -0.021    0.012  0.003 -0.033
 C          0.021 -0.028  0.020    0.004 -0.008  0.007    0.018 -0.031  0.027
 C          0.006  0.006 -0.020    0.012  0.008 -0.035    0.008  0.014 -0.036
 C         -0.001 -0.000  0.004   -0.037  0.034 -0.013    0.024 -0.024  0.016
 H          0.012 -0.018 -0.204    0.001 -0.001 -0.016   -0.003  0.004  0.042
 H          0.133 -0.165  0.142    0.004 -0.006  0.006   -0.015  0.021 -0.018
 H          0.041  0.036 -0.156    0.044  0.034 -0.160   -0.026 -0.023  0.097
 H          0.099 -0.050  0.084    0.094 -0.048  0.080   -0.071  0.035 -0.060
 H         -0.228  0.197 -0.281    0.127 -0.110  0.159    0.185 -0.161  0.231
 H          0.511 -0.242 -0.183   -0.202  0.095  0.072   -0.297  0.140  0.106
 H         -0.240  0.342 -0.270   -0.063  0.091 -0.073   -0.244  0.352 -0.282
 H         -0.070 -0.068  0.242   -0.126 -0.119  0.428   -0.117 -0.117  0.411
 H          0.001  0.006 -0.043   -0.022 -0.060  0.457    0.016  0.050 -0.361
 H          0.013 -0.008 -0.009    0.448 -0.312 -0.312   -0.271  0.190  0.190
 TransDip  -0.018 -0.000  0.075   -0.038  0.036 -0.079    0.104 -0.060 -0.045

 Mode:                37                     38                     39
 Frequency:      3182.97                3197.15                3249.15
 Force Cnst:      6.3552                 6.5852                 6.9353
 Red. Mass:       1.0647                 1.0934                 1.1150
 IR Active:          YES                    YES                    YES
 IR Intens:        3.199                 10.473                  0.432
 Raman Active:       YES                    YES                    YES
               X      Y      Z        X      Y      Z        X      Y      Z
 C         -0.031  0.037  0.015   -0.000 -0.000 -0.001   -0.015  0.017 -0.062
 C          0.044 -0.006 -0.023   -0.000 -0.000 -0.001    0.023 -0.023  0.058
 C          0.003 -0.002 -0.003   -0.000 -0.005  0.017   -0.020  0.012 -0.006
 C         -0.002  0.003 -0.003   -0.028  0.040 -0.030   -0.001  0.002 -0.002
 C         -0.000  0.001 -0.001    0.018  0.016 -0.057   -0.000 -0.001  0.002
 C         -0.008  0.005 -0.001    0.008 -0.011  0.014   -0.008  0.004  0.016
 H          0.026 -0.041 -0.442   -0.001  0.002  0.010   -0.039  0.059  0.527
 H          0.281 -0.355  0.301   -0.000  0.001 -0.001    0.212 -0.268  0.216
 H         -0.137 -0.112  0.501    0.000  0.000 -0.000    0.114  0.084 -0.380
 H         -0.309  0.153 -0.261    0.006 -0.002  0.004   -0.390  0.188 -0.314
 H          0.018 -0.015  0.022   -0.104  0.090 -0.131    0.096 -0.085  0.127
 H         -0.062  0.031  0.023    0.085 -0.038 -0.031    0.139 -0.064 -0.054
 H          0.029 -0.040  0.033    0.311 -0.441  0.348    0.015 -0.021  0.017
 H         -0.005 -0.004  0.017   -0.187 -0.175  0.640    0.006  0.006 -0.021
 H         -0.003 -0.010  0.076    0.009  0.029 -0.209    0.004  0.020 -0.133
 H          0.089 -0.060 -0.060   -0.084  0.061  0.058    0.090 -0.063 -0.059
 TransDip   0.008  0.052 -0.023    0.007  0.071 -0.076   -0.017  0.011  0.006

 Mode:                40                     41                     42
 Frequency:      3256.13                3259.92                3272.89
 Force Cnst:      6.9643                 6.9796                 7.0507
 Red. Mass:       1.1149                 1.1147                 1.1172
 IR Active:          YES                    YES                    YES
 IR Intens:        4.298                  9.675                 10.652
 Raman Active:       YES                    YES                    YES
               X      Y      Z        X      Y      Z        X      Y      Z
 C          0.003 -0.004  0.017   -0.005  0.006 -0.015   -0.016  0.019 -0.065
 C          0.002 -0.001  0.000    0.007 -0.008  0.021   -0.024  0.024 -0.061
 C         -0.067  0.042 -0.023    0.037 -0.024  0.015   -0.007  0.005 -0.003
 C         -0.005  0.007 -0.005    0.002 -0.003  0.002   -0.000  0.000 -0.000
 C          0.002  0.002 -0.006    0.002  0.002 -0.007    0.000  0.000 -0.001
 C          0.021 -0.010 -0.045    0.032 -0.014 -0.074    0.004 -0.002 -0.009
 H          0.012 -0.015 -0.143   -0.007  0.015  0.120   -0.041  0.059  0.537
 H         -0.050  0.064 -0.051    0.062 -0.077  0.065    0.232 -0.289  0.235
 H         -0.002 -0.002  0.010    0.041  0.031 -0.142   -0.122 -0.088  0.412
 H         -0.014  0.009 -0.011   -0.129  0.061 -0.104    0.395 -0.192  0.317
 H          0.341 -0.300  0.450   -0.203  0.178 -0.265    0.039 -0.032  0.051
 H          0.452 -0.209 -0.174   -0.242  0.112  0.095    0.043 -0.020 -0.017
 H          0.048 -0.070  0.056   -0.023  0.032 -0.026    0.003 -0.005  0.004
 H         -0.018 -0.018  0.063   -0.023 -0.023  0.083   -0.002 -0.003  0.008
 H         -0.008 -0.057  0.377   -0.017 -0.095  0.637   -0.001 -0.012  0.084
 H         -0.241  0.170  0.160   -0.367  0.259  0.241   -0.044  0.031  0.029
 TransDip  -0.035  0.032 -0.046    0.074 -0.040 -0.053   -0.029  0.031 -0.095

 STANDARD THERMODYNAMIC QUANTITIES AT   298.15 K  AND     1.00 ATM

   This Molecule has  1 Imaginary Frequencies
   Zero point vibrational energy:       88.566 kcal/mol

   Atom    1 Element C  Has Mass   12.00000
   Atom    2 Element C  Has Mass   12.00000
   Atom    3 Element C  Has Mass   12.00000
   Atom    4 Element C  Has Mass   12.00000
   Atom    5 Element C  Has Mass   12.00000
   Atom    6 Element C  Has Mass   12.00000
   Atom    7 Element H  Has Mass    1.00783
   Atom    8 Element H  Has Mass    1.00783
   Atom    9 Element H  Has Mass    1.00783
   Atom   10 Element H  Has Mass    1.00783
   Atom   11 Element H  Has Mass    1.00783
   Atom   12 Element H  Has Mass    1.00783
   Atom   13 Element H  Has Mass    1.00783
   Atom   14 Element H  Has Mass    1.00783
   Atom   15 Element H  Has Mass    1.00783
   Atom   16 Element H  Has Mass    1.00783
   Molecular Mass:    82.078300 amu
   Principal axes and moments of inertia in amu*Bohr^2:
                             1           2           3
    Eigenvalues --      409.08409   506.17994   776.85799
          X               0.43588     0.79230     0.42693
          Y               0.88732    -0.45766    -0.05658
          Z              -0.15056    -0.40349     0.90251
   Rotational Symmetry Number is   1
   The Molecule is an Asymmetric Top
   Translational Enthalpy:        0.889 kcal/mol
   Rotational Enthalpy:           0.889 kcal/mol
   Vibrational Enthalpy:         90.759 kcal/mol
   gas constant (RT):             0.592 kcal/mol
   Translational Entropy:        39.129  cal/mol.K
   Rotational Entropy:           26.578  cal/mol.K
   Vibrational Entropy:          11.530  cal/mol.K

   Total Enthalpy:               93.129 kcal/mol
   Total Entropy:                77.237  cal/mol.K
Archival summary:
1\1\nid00459\FREQ\ProcedureUnspecified\BasisUnspecified\610\cgrambow\WedFeb2011:47:412019WedFeb2011:47:412019\0\\#,FREQ,ProcedureUnspecified,BasisUnspecified,\\0,1\C\H,1,1.08515\C,1,1.37284,2,118.833\H,3,1.08101,1,120.729,2,-161.204,0\H,3,1.08382,1,119.981,2,-6.44976,0\C,1,1.39937,2,118.23,3,166.759,0\H,6,1.08524,1,118.212,2,-0.0196114,0\C,6,1.37311,1,121.577,2,-166.455,0\H,8,1.08122,6,120.69,1,-32.5583,0\H,8,1.0838,6,119.953,1,172.743,0\C,3,2.22939,1,101.812,2,107.608,0\H,11,1.08103,3,92.0463,1,-72.1182,0\H,11,1.08292,3,90.6841,1,172.543,0\C,11,1.37727,3,109.051,1,50.645,0\H,14,1.08103,11,120.057,3,-104.095,0\H,14,1.08288,11,119.716,3,101.984,0\\\@

 Total job time:  2892.75s(wall), 10491.00s(cpu) 
 Wed Feb 20 11:47:41 2019

        *************************************************************
        *                                                           *
        *  Thank you very much for using Q-Chem.  Have a nice day.  *
        *                                                           *
        *************************************************************


